<?xml version="1.0" encoding="ISO-8859-1"?>
<modeling>
 <generator>
  <i name="program" type="string">vasp </i>
  <i name="version" type="string">5.3.5  </i>
  <i name="subversion" type="string">31Mar14 (build Oct 29 2014 16:16:03) complex                          parallel </i>
  <i name="platform" type="string">Linux-UFHPC </i>
  <i name="date" type="string">2016 02 09 </i>
  <i name="time" type="string">18:43:51 </i>
 </generator>
 <incar>
  <i type="string" name="PREC">accurate</i>
  <i type="int" name="IBRION">     2</i>
  <i name="EDIFF">      0.00000100</i>
  <i type="int" name="NSW">     0</i>
  <i type="int" name="ISIF">     3</i>
  <i name="ENCUT">    300.00000000</i>
  <i type="string" name="LREAL"> Auto</i>
  <i type="int" name="ISMEAR">     0</i>
  <i name="SIGMA">      0.10000000</i>
  <i type="logical" name="LWAVE"> F  </i>
  <i type="logical" name="LCHARG"> F  </i>
  <i type="logical" name="LAECHG"> F  </i>
  <i type="string" name="GGA"> Bo</i>
  <i name="PARAM1">      0.18333333</i>
  <i name="PARAM2">      0.22000000</i>
  <i type="logical" name="LUSE_VDW"> T  </i>
  <i name="AGGAC">      0.00000000</i>
 </incar>
 <kpoints>
  <generation param="Gamma">
   <v type="int" name="divisions">      13        4        2 </v>
   <v name="usershift">      0.00000000       0.00000000       0.00000000 </v>
   <v name="genvec1">      0.07692308      -0.00000000       0.00000000 </v>
   <v name="genvec2">      0.00000000       0.25000000       0.00000000 </v>
   <v name="genvec3">      0.00000000       0.00000000       0.50000000 </v>
   <v name="shift">      0.00000000       0.00000000       0.00000000 </v>
  </generation>
  <varray name="kpointlist" >
   <v>       0.00000000       0.00000000       0.00000000 </v>
   <v>       0.07692308      -0.00000000       0.00000000 </v>
   <v>       0.15384615      -0.00000000       0.00000000 </v>
   <v>       0.23076923      -0.00000000       0.00000000 </v>
   <v>       0.30769231      -0.00000000       0.00000000 </v>
   <v>       0.38461538      -0.00000000       0.00000000 </v>
   <v>       0.46153846      -0.00000000       0.00000000 </v>
   <v>       0.00000000       0.25000000       0.00000000 </v>
   <v>       0.07692308       0.25000000       0.00000000 </v>
   <v>       0.15384615       0.25000000       0.00000000 </v>
   <v>       0.23076923       0.25000000       0.00000000 </v>
   <v>       0.30769231       0.25000000       0.00000000 </v>
   <v>       0.38461538       0.25000000       0.00000000 </v>
   <v>       0.46153846       0.25000000       0.00000000 </v>
   <v>      -0.46153846       0.25000000       0.00000000 </v>
   <v>      -0.38461538       0.25000000       0.00000000 </v>
   <v>      -0.30769231       0.25000000       0.00000000 </v>
   <v>      -0.23076923       0.25000000       0.00000000 </v>
   <v>      -0.15384615       0.25000000       0.00000000 </v>
   <v>      -0.07692308       0.25000000       0.00000000 </v>
   <v>       0.00000000       0.50000000       0.00000000 </v>
   <v>       0.07692308       0.50000000       0.00000000 </v>
   <v>       0.15384615       0.50000000       0.00000000 </v>
   <v>       0.23076923       0.50000000       0.00000000 </v>
   <v>       0.30769231       0.50000000       0.00000000 </v>
   <v>       0.38461538       0.50000000       0.00000000 </v>
   <v>       0.46153846       0.50000000       0.00000000 </v>
   <v>       0.00000000       0.00000000       0.50000000 </v>
   <v>       0.07692308      -0.00000000       0.50000000 </v>
   <v>       0.15384615      -0.00000000       0.50000000 </v>
   <v>       0.23076923      -0.00000000       0.50000000 </v>
   <v>       0.30769231      -0.00000000       0.50000000 </v>
   <v>       0.38461538      -0.00000000       0.50000000 </v>
   <v>       0.46153846      -0.00000000       0.50000000 </v>
   <v>       0.00000000       0.25000000       0.50000000 </v>
   <v>       0.07692308       0.25000000       0.50000000 </v>
   <v>       0.15384615       0.25000000       0.50000000 </v>
   <v>       0.23076923       0.25000000       0.50000000 </v>
   <v>       0.30769231       0.25000000       0.50000000 </v>
   <v>       0.38461538       0.25000000       0.50000000 </v>
   <v>       0.46153846       0.25000000       0.50000000 </v>
   <v>      -0.46153846       0.25000000       0.50000000 </v>
   <v>      -0.38461538       0.25000000       0.50000000 </v>
   <v>      -0.30769231       0.25000000       0.50000000 </v>
   <v>      -0.23076923       0.25000000       0.50000000 </v>
   <v>      -0.15384615       0.25000000       0.50000000 </v>
   <v>      -0.07692308       0.25000000       0.50000000 </v>
   <v>       0.00000000       0.50000000       0.50000000 </v>
   <v>       0.07692308       0.50000000       0.50000000 </v>
   <v>       0.15384615       0.50000000       0.50000000 </v>
   <v>       0.23076923       0.50000000       0.50000000 </v>
   <v>       0.30769231       0.50000000       0.50000000 </v>
   <v>       0.38461538       0.50000000       0.50000000 </v>
   <v>       0.46153846       0.50000000       0.50000000 </v>
  </varray>
  <varray name="weights" >
   <v>       0.00961538 </v>
   <v>       0.01923077 </v>
   <v>       0.01923077 </v>
   <v>       0.01923077 </v>
   <v>       0.01923077 </v>
   <v>       0.01923077 </v>
   <v>       0.01923077 </v>
   <v>       0.01923077 </v>
   <v>       0.01923077 </v>
   <v>       0.01923077 </v>
   <v>       0.01923077 </v>
   <v>       0.01923077 </v>
   <v>       0.01923077 </v>
   <v>       0.01923077 </v>
   <v>       0.01923077 </v>
   <v>       0.01923077 </v>
   <v>       0.01923077 </v>
   <v>       0.01923077 </v>
   <v>       0.01923077 </v>
   <v>       0.01923077 </v>
   <v>       0.00961538 </v>
   <v>       0.01923077 </v>
   <v>       0.01923077 </v>
   <v>       0.01923077 </v>
   <v>       0.01923077 </v>
   <v>       0.01923077 </v>
   <v>       0.01923077 </v>
   <v>       0.00961538 </v>
   <v>       0.01923077 </v>
   <v>       0.01923077 </v>
   <v>       0.01923077 </v>
   <v>       0.01923077 </v>
   <v>       0.01923077 </v>
   <v>       0.01923077 </v>
   <v>       0.01923077 </v>
   <v>       0.01923077 </v>
   <v>       0.01923077 </v>
   <v>       0.01923077 </v>
   <v>       0.01923077 </v>
   <v>       0.01923077 </v>
   <v>       0.01923077 </v>
   <v>       0.01923077 </v>
   <v>       0.01923077 </v>
   <v>       0.01923077 </v>
   <v>       0.01923077 </v>
   <v>       0.01923077 </v>
   <v>       0.01923077 </v>
   <v>       0.00961538 </v>
   <v>       0.01923077 </v>
   <v>       0.01923077 </v>
   <v>       0.01923077 </v>
   <v>       0.01923077 </v>
   <v>       0.01923077 </v>
   <v>       0.01923077 </v>
  </varray>
 </kpoints>
 <parameters>
  <separator name="general" >
   <i type="string" name="SYSTEM">unknown system</i>
   <i type="logical" name="LCOMPAT"> F  </i>
  </separator>
  <separator name="electronic" >
   <i type="string" name="PREC">accura</i>
   <i name="ENMAX">    300.00000000</i>
   <i name="ENAUG">    342.92400000</i>
   <i name="EDIFF">      0.00000100</i>
   <i type="int" name="IALGO">    38</i>
   <i type="int" name="IWAVPR">    10</i>
   <i type="int" name="NBANDS">    68</i>
   <i name="NELECT">    108.00000000</i>
   <i type="int" name="TURBO">     0</i>
   <i type="int" name="IRESTART">     0</i>
   <i type="int" name="NREBOOT">     0</i>
   <i type="int" name="NMIN">     0</i>
   <i name="EREF">      0.00000000</i>
   <separator name="electronic smearing" >
    <i type="int" name="ISMEAR">     0</i>
    <i name="SIGMA">      0.10000000</i>
    <i name="KSPACING">      0.50000000</i>
    <i type="logical" name="KGAMMA"> T  </i>
   </separator>
   <separator name="electronic projectors" >
    <i type="logical" name="LREAL"> T  </i>
    <v name="ROPT">     -0.00025000     -0.00025000</v>
    <i type="int" name="LMAXPAW">  -100</i>
    <i type="int" name="LMAXMIX">     2</i>
    <i type="logical" name="NLSPLINE"> F  </i>
   </separator>
   <separator name="electronic startup" >
    <i type="int" name="ISTART">     0</i>
    <i type="int" name="ICHARG">     2</i>
    <i type="int" name="INIWAV">     1</i>
   </separator>
   <separator name="electronic spin" >
    <i type="int" name="ISPIN">     1</i>
    <i type="logical" name="LNONCOLLINEAR"> F  </i>
    <v name="MAGMOM">      1.00000000      1.00000000      1.00000000      1.00000000      1.00000000      1.00000000      1.00000000      1.00000000      1.00000000      1.00000000      1.00000000      1.00000000      1.00000000      1.00000000      1.00000000      1.00000000      1.00000000      1.00000000      1.00000000      1.00000000
      1.00000000      1.00000000      1.00000000      1.00000000</v>
    <i name="NUPDOWN">     -1.00000000</i>
    <i type="logical" name="LSORBIT"> F  </i>
    <v name="SAXIS">      0.00000000      0.00000000      1.00000000</v>
    <i type="logical" name="LSPIRAL"> F  </i>
    <v name="QSPIRAL">      0.00000000      0.00000000      0.00000000</v>
    <i type="logical" name="LZEROZ"> F  </i>
   </separator>
   <separator name="electronic exchange-correlation" >
    <i type="logical" name="LASPH"> F  </i>
    <i type="logical" name="LMETAGGA"> F  </i>
   </separator>
   <separator name="electronic convergence" >
    <i type="int" name="NELM">    60</i>
    <i type="int" name="NELMDL">    -5</i>
    <i type="int" name="NELMIN">     2</i>
    <i name="ENINI">    300.00000000</i>
    <separator name="electronic convergence detail" >
     <i type="logical" name="LDIAG"> T  </i>
     <i type="logical" name="LSUBROT"> F  </i>
     <i name="WEIMIN">      0.00000000</i>
     <i name="EBREAK">      0.00000000</i>
     <i name="DEPER">      0.30000000</i>
     <i type="int" name="NRMM">     4</i>
     <i name="TIME">      0.40000000</i>
    </separator>
   </separator>
   <separator name="electronic mixer" >
    <i name="AMIX">      0.40000000</i>
    <i name="BMIX">      1.00000000</i>
    <i name="AMIN">      0.10000000</i>
    <i name="AMIX_MAG">      1.60000000</i>
    <i name="BMIX_MAG">      1.00000000</i>
    <separator name="electronic mixer details" >
     <i type="int" name="IMIX">     4</i>
     <i type="int" name="MAXMIX">   -45</i>
     <i name="WC">    100.00000000</i>
     <i type="int" name="INIMIX">     1</i>
     <i type="int" name="MIXPRE">     1</i>
     <i type="int" name="MREMOVE">     5</i>
    </separator>
   </separator>
   <separator name="electronic dipolcorrection" >
    <i type="logical" name="LDIPOL"> F  </i>
    <i type="logical" name="LMONO"> F  </i>
    <i type="int" name="IDIPOL">     0</i>
    <i name="EPSILON">      1.00000000</i>
    <v name="DIPOL">   -100.00000000   -100.00000000   -100.00000000</v>
    <i name="EFIELD">      0.00000000</i>
   </separator>
  </separator>
  <separator name="grids" >
   <i type="int" name="NGX">    20</i>
   <i type="int" name="NGY">    60</i>
   <i type="int" name="NGZ">   160</i>
   <i type="int" name="NGXF">    40</i>
   <i type="int" name="NGYF">   120</i>
   <i type="int" name="NGZF">   320</i>
   <i type="logical" name="ADDGRID"> F  </i>
  </separator>
  <separator name="ionic" >
   <i type="int" name="NSW">     0</i>
   <i type="int" name="IBRION">    -1</i>
   <i type="int" name="ISIF">     3</i>
   <i name="PSTRESS">      0.00000000</i>
   <i name="EDIFFG">      0.00001000</i>
   <i type="int" name="NFREE">     1</i>
   <i name="POTIM">      0.50000000</i>
   <i name="SMASS">     -3.00000000</i>
   <i name="SCALEE">      1.00000000</i>
  </separator>
  <separator name="ionic md" >
   <i name="TEBEG">      0.00010000</i>
   <i name="TEEND">      0.00010000</i>
   <i type="int" name="NBLOCK">     1</i>
   <i type="int" name="KBLOCK">     1</i>
   <i type="int" name="NPACO">   256</i>
   <i name="APACO">     16.00000000</i>
  </separator>
  <separator name="symmetry" >
   <i type="int" name="ISYM">     2</i>
   <i name="SYMPREC">      0.00001000</i>
  </separator>
  <separator name="dos" >
   <i type="logical" name="LORBIT"> F  </i>
   <v name="RWIGS">     -1.00000000     -1.00000000</v>
   <i type="int" name="NEDOS">   301</i>
   <i name="EMIN">     10.00000000</i>
   <i name="EMAX">    -10.00000000</i>
   <i name="EFERMI">      0.00000000</i>
  </separator>
  <separator name="writing" >
   <i type="int" name="NWRITE">     2</i>
   <i type="logical" name="LWAVE"> F  </i>
   <i type="logical" name="LCHARG"> F  </i>
   <i type="logical" name="LPARD"> F  </i>
   <i type="logical" name="LVTOT"> F  </i>
   <i type="logical" name="LVHAR"> F  </i>
   <i type="logical" name="LELF"> F  </i>
   <i type="logical" name="LOPTICS"> F  </i>
   <v name="STM">      0.00000000      0.00000000      0.00000000      0.00000000      0.00000000      0.00000000      0.00000000</v>
  </separator>
  <separator name="performance" >
   <i type="int" name="NPAR">     4</i>
   <i type="int" name="NSIM">     4</i>
   <i type="int" name="NBLK">    -1</i>
   <i type="logical" name="LPLANE"> T  </i>
   <i type="logical" name="LSCALAPACK"> T  </i>
   <i type="logical" name="LSCAAWARE"> F  </i>
   <i type="logical" name="LSCALU"> F  </i>
   <i type="logical" name="LASYNC"> F  </i>
   <i type="logical" name="LORBITALREAL"> F  </i>
  </separator>
  <separator name="miscellaneous" >
   <i type="int" name="IDIOT">     3</i>
   <i type="logical" name="LMUSIC"> F  </i>
   <v name="POMASS">     30.97400000     28.08500000</v>
   <v name="DARWINR">      0.00000000      0.00000000</v>
   <v name="DARWINV">      1.00000000      1.00000000</v>
   <i type="logical" name="LCORR"> T  </i>
  </separator>
  <i type="logical" name="GGA_COMPAT"> T  </i>
  <i type="logical" name="LBERRY"> F  </i>
  <i type="int" name="ICORELEVEL">     0</i>
  <i type="logical" name="LDAU"> F  </i>
  <i type="int" name="I_CONSTRAINED_M">     0</i>
  <separator name="electronic exchange-correlation" >
   <i type="string" name="GGA">BO</i>
   <i type="int" name="VOSKOWN">     0</i>
   <i type="logical" name="LHFCALC"> F  </i>
   <i type="string" name="PRECFOCK"></i>
   <i type="logical" name="LSYMGRAD"> F  </i>
   <i type="logical" name="LHFONE"> F  </i>
   <i type="logical" name="LRHFCALC"> F  </i>
   <i type="logical" name="LTHOMAS"> F  </i>
   <i type="logical" name="LMODELHF"> F  </i>
   <i name="ENCUT4O">     -1.00000000</i>
   <i type="int" name="EXXOEP">     0</i>
   <i type="int" name="FOURORBIT">     0</i>
   <i name="AEXX">      0.00000000</i>
   <i name="HFALPHA">      0.00000000</i>
   <i name="MCALPHA">      0.00000000</i>
   <i name="ALDAX">      1.00000000</i>
   <i name="AGGAX">      1.00000000</i>
   <i name="ALDAC">      1.00000000</i>
   <i name="AGGAC">      0.00000000</i>
   <i type="int" name="NKREDX">     1</i>
   <i type="int" name="NKREDY">     1</i>
   <i type="int" name="NKREDZ">     1</i>
   <i type="logical" name="SHIFTRED"> F  </i>
   <i type="logical" name="ODDONLY"> F  </i>
   <i type="logical" name="EVENONLY"> F  </i>
   <i type="int" name="LMAXFOCK">     0</i>
   <i type="int" name="NMAXFOCKAE">     0</i>
   <i type="logical" name="LFOCKAEDFT"> F  </i>
   <i name="HFSCREEN">      0.00000000</i>
   <i name="HFSCREENC">      0.00000000</i>
   <i type="int" name="NBANDSGWLOW">     0</i>
  </separator>
  <separator name="vdW DFT" >
   <i type="logical" name="LUSE_VDW"> T  </i>
   <i name="Zab_VDW">     -0.84910000</i>
   <i name="PARAM1">      0.18333333</i>
   <i name="PARAM2">      0.22000000</i>
   <i name="PARAM3">      0.00000000</i>
  </separator>
  <separator name="model GW" >
   <i type="int" name="MODEL_GW">     0</i>
   <i name="MODEL_EPS0">     25.05800243</i>
   <i name="MODEL_ALPHA">      1.00000000</i>
  </separator>
  <separator name="linear response parameters" >
   <i type="logical" name="LEPSILON"> F  </i>
   <i type="logical" name="LRPA"> F  </i>
   <i type="logical" name="LNABLA"> F  </i>
   <i type="logical" name="LVEL"> F  </i>
   <i type="int" name="KINTER">     0</i>
   <i name="CSHIFT">      0.10000000</i>
   <i name="OMEGAMAX">     -1.00000000</i>
   <i name="DEG_THRESHOLD">      0.00200000</i>
  </separator>
  <separator name="orbital magnetization" >
   <i type="logical" name="NUCIND"> F  </i>
   <v name="MAGPOS">      0.00000000      0.00000000      0.00000000</v>
   <i type="logical" name="LNICSALL"> T  </i>
   <i type="logical" name="ORBITALMAG"> F  </i>
   <i type="logical" name="LMAGBLOCH"> F  </i>
   <i type="logical" name="LCHIMAG"> F  </i>
   <i type="logical" name="LGAUGE"> T  </i>
   <i type="int" name="MAGATOM">     0</i>
   <v name="MAGDIPOL">      0.00000000      0.00000000      0.00000000</v>
   <v name="AVECCONST">      0.00000000      0.00000000      0.00000000</v>
  </separator>
  <separator name="response functions" >
   <i type="logical" name="LADDER"> F  </i>
   <i type="logical" name="LFXC"> F  </i>
   <i type="logical" name="LHARTREE"> T  </i>
   <i type="int" name="IBSE">     0</i>
   <i type="logical" name="LTCTE"> F  </i>
   <i type="logical" name="LTETE"> F  </i>
   <i type="logical" name="LTRIPLET"> F  </i>
   <i type="logical" name="LFXCEPS"> F  </i>
   <i type="logical" name="LFXHEG"> F  </i>
   <i type="logical" name="L2ORDER"> F  </i>
   <i type="logical" name="LUSEW"> F  </i>
   <i name="ENCUTGW">     -2.00000000</i>
   <i name="ENCUTGWSOFT">     -2.00000000</i>
   <i name="ENCUTLF">     -1.00000000</i>
   <i type="int" name="LMAXMP2">    -1</i>
   <i name="SCISSOR">      0.00000000</i>
   <i type="int" name="NOMEGA">     0</i>
   <i type="int" name="NOMEGAR">     0</i>
   <i type="int" name="NBANDSGW">    -1</i>
   <i type="int" name="NBANDSO">    -1</i>
   <i type="int" name="NBANDSV">    -1</i>
   <i type="int" name="NELM">     1</i>
   <i type="int" name="DIM">     3</i>
   <i type="int" name="ANTIRES">     0</i>
   <i name="OMEGAMAX">    -30.00000000</i>
   <i name="OMEGAMIN">    -30.00000000</i>
   <i name="OMEGATL">   -200.00000000</i>
   <i type="int" name="OMEGAGRID">     0</i>
   <i name="CSHIFT">     -0.10000000</i>
   <i type="logical" name="SELFENERGY"> F  </i>
   <i type="logical" name="LSPECTRAL"> F  </i>
   <i type="logical" name="ODDONLYGW"> F  </i>
   <i type="logical" name="EVENONLYGW"> F  </i>
   <i type="int" name="NKREDLFX">     1</i>
   <i type="int" name="NKREDLFY">     1</i>
   <i type="int" name="NKREDLFZ">     1</i>
   <i type="int" name="MAXMEM">  1800</i>
   <i type="int" name="TELESCOPE">     0</i>
   <i type="int" name="TAUPAR">     1</i>
  </separator>
  <separator name="External order field" >
   <i name="OFIELD_KAPPA">      0.00000000</i>
   <v name="OFIELD_K">      0.00000000      0.00000000      0.00000000</v>
   <i name="OFIELD_Q6_NEAR">      0.00000000</i>
   <i name="OFIELD_Q6_FAR">      0.00000000</i>
   <i name="OFIELD_A">      0.00000000</i>
  </separator>
 </parameters>
 <atominfo>
  <atoms>      24 </atoms>
  <types>       2 </types>
  <array name="atoms" >
   <dimension dim="1">ion</dimension>
   <field type="string">element</field>
   <field type="int">atomtype</field>
   <set>
    <rc><c>P </c><c>   1</c></rc>
    <rc><c>P </c><c>   1</c></rc>
    <rc><c>P </c><c>   1</c></rc>
    <rc><c>P </c><c>   1</c></rc>
    <rc><c>P </c><c>   1</c></rc>
    <rc><c>P </c><c>   1</c></rc>
    <rc><c>P </c><c>   1</c></rc>
    <rc><c>P </c><c>   1</c></rc>
    <rc><c>P </c><c>   1</c></rc>
    <rc><c>P </c><c>   1</c></rc>
    <rc><c>P </c><c>   1</c></rc>
    <rc><c>P </c><c>   1</c></rc>
    <rc><c>Si</c><c>   2</c></rc>
    <rc><c>Si</c><c>   2</c></rc>
    <rc><c>Si</c><c>   2</c></rc>
    <rc><c>Si</c><c>   2</c></rc>
    <rc><c>Si</c><c>   2</c></rc>
    <rc><c>Si</c><c>   2</c></rc>
    <rc><c>Si</c><c>   2</c></rc>
    <rc><c>Si</c><c>   2</c></rc>
    <rc><c>Si</c><c>   2</c></rc>
    <rc><c>Si</c><c>   2</c></rc>
    <rc><c>Si</c><c>   2</c></rc>
    <rc><c>Si</c><c>   2</c></rc>
   </set>
  </array>
  <array name="atomtypes" >
   <dimension dim="1">type</dimension>
   <field type="int">atomspertype</field>
   <field type="string">element</field>
   <field>mass</field>
   <field>valence</field>
   <field type="string">pseudopotential</field>
   <set>
    <rc><c>  12</c><c>P </c><c>     30.97400000</c><c>      5.00000000</c><c>  PAW_PBE P 17Jan2003                   </c></rc>
    <rc><c>  12</c><c>Si</c><c>     28.08500000</c><c>      4.00000000</c><c> PAW_PBE Si 05Jan2001                   </c></rc>
   </set>
  </array>
 </atominfo>
 <structure name="initialpos" >
  <crystal>
   <varray name="basis" >
    <v>       3.54040000       0.00000000       0.00000000 </v>
    <v>      -1.77020000      10.29434800       0.00000000 </v>
    <v>       0.00000000       0.00000000      27.50142900 </v>
   </varray>
   <i name="volume">   1002.32009712 </i>
   <varray name="rec_basis" >
    <v>       0.28245396       0.04857034       0.00000000 </v>
    <v>       0.00000000       0.09714068       0.00000000 </v>
    <v>       0.00000000       0.00000000       0.03636175 </v>
   </varray>
  </crystal>
  <varray name="positions" >
   <v>       0.11402300       0.22804500       0.23316207 </v>
   <v>       0.91402300       0.92804500       0.51499159 </v>
   <v>       0.45808900       0.91617900       0.20939482 </v>
   <v>       0.25808900       0.61617900       0.49122434 </v>
   <v>       0.31085400       0.62170900       0.08414979 </v>
   <v>       0.31085400       0.62170900       0.36597930 </v>
   <v>       0.99923000       0.99846000       0.08631254 </v>
   <v>       0.99923000       0.99846000       0.36814206 </v>
   <v>       0.65492700       0.30985400       0.06041748 </v>
   <v>       0.65492700       0.30985400       0.34224700 </v>
   <v>       0.76973800       0.53947500       0.20725292 </v>
   <v>       0.56973800       0.23947500       0.48908244 </v>
   <v>       0.93971600       0.87943300       0.15783749 </v>
   <v>       0.73971600       0.57943300       0.43966701 </v>
   <v>       0.20515200       0.41030300       0.18578822 </v>
   <v>       0.00515200       0.11030300       0.46761774 </v>
   <v>       0.20184900       0.40369900       0.09969156 </v>
   <v>       0.20184900       0.40369900       0.38152107 </v>
   <v>       0.56380500       0.12761000       0.10779021 </v>
   <v>       0.56380500       0.12761000       0.38961973 </v>
   <v>       0.56710600       0.13421200       0.19387616 </v>
   <v>       0.36710600       0.83421200       0.47570568 </v>
   <v>       0.82923400       0.65846800       0.13571444 </v>
   <v>       0.62923400       0.35846800       0.41754396 </v>
  </varray>
 </structure>
 <calculation>
  <scstep>
   <time name="dav">   62.88   62.90</time>
   <time name="total">   78.98   79.01</time>
   <energy>
    <i name="alphaZ">     36.80884744 </i>
    <i name="ewald">  11986.75005333 </i>
    <i name="hartreedc"> -15031.26414883 </i>
    <i name="XCdc">    -87.36624700 </i>
    <i name="pawpsdc">   1056.43050070 </i>
    <i name="pawaedc">   -732.41190547 </i>
    <i name="eentropy">     -0.04648365 </i>
    <i name="bandstr">    -90.47996573 </i>
    <i name="atom">   3354.04126044 </i>
    <i name="e_fr_energy">    492.46191123 </i>
    <i name="e_wo_entrp">    492.50839488 </i>
    <i name="e_0_energy">    492.48515306 </i>
   </energy>
  </scstep>
  <scstep>
   <time name="dav">   78.23   78.24</time>
   <time name="total">   78.24   78.26</time>
   <energy>
    <i name="e_fr_energy">    -67.34066913 </i>
    <i name="e_wo_entrp">    -67.31457587 </i>
    <i name="e_0_energy">    -67.32762250 </i>
   </energy>
  </scstep>
  <scstep>
   <time name="dav">   72.57   72.58</time>
   <time name="total">   72.58   72.60</time>
   <energy>
    <i name="e_fr_energy">   -122.93786820 </i>
    <i name="e_wo_entrp">   -122.91483088 </i>
    <i name="e_0_energy">   -122.92634954 </i>
   </energy>
  </scstep>
  <scstep>
   <time name="dav">   86.85   86.87</time>
   <time name="total">   86.87   86.89</time>
   <energy>
    <i name="e_fr_energy">   -125.43735449 </i>
    <i name="e_wo_entrp">   -125.41272341 </i>
    <i name="e_0_energy">   -125.42503895 </i>
   </energy>
  </scstep>
  <scstep>
   <time name="dav">   79.42   79.44</time>
   <time name="total">   83.65   83.67</time>
   <energy>
    <i name="e_fr_energy">   -125.49623449 </i>
    <i name="e_wo_entrp">   -125.47155877 </i>
    <i name="e_0_energy">   -125.48389663 </i>
   </energy>
  </scstep>
  <scstep>
   <time name="dav">   71.27   71.29</time>
   <time name="total">   90.01   90.04</time>
   <energy>
    <i name="e_fr_energy">   -123.19489445 </i>
    <i name="e_wo_entrp">   -123.15715242 </i>
    <i name="e_0_energy">   -123.17602343 </i>
   </energy>
  </scstep>
  <scstep>
   <time name="dav">   74.98   75.00</time>
   <time name="total">   93.76   93.78</time>
   <energy>
    <i name="e_fr_energy">   -123.00596524 </i>
    <i name="e_wo_entrp">   -122.97044387 </i>
    <i name="e_0_energy">   -122.98820455 </i>
   </energy>
  </scstep>
  <scstep>
   <time name="dav">   79.60   79.61</time>
   <time name="total">   98.34   98.36</time>
   <energy>
    <i name="e_fr_energy">   -122.93049191 </i>
    <i name="e_wo_entrp">   -122.89317963 </i>
    <i name="e_0_energy">   -122.91183577 </i>
   </energy>
  </scstep>
  <scstep>
   <time name="dav">   81.79   81.80</time>
   <time name="total">  101.94  101.96</time>
   <energy>
    <i name="e_fr_energy">   -122.92519259 </i>
    <i name="e_wo_entrp">   -122.88675838 </i>
    <i name="e_0_energy">   -122.90597549 </i>
   </energy>
  </scstep>
  <scstep>
   <time name="dav">   73.36   73.37</time>
   <time name="total">   92.31   92.33</time>
   <energy>
    <i name="e_fr_energy">   -122.90104603 </i>
    <i name="e_wo_entrp">   -122.86357076 </i>
    <i name="e_0_energy">   -122.88230839 </i>
   </energy>
  </scstep>
  <scstep>
   <time name="dav">   75.78   75.80</time>
   <time name="total">   94.88   94.90</time>
   <energy>
    <i name="e_fr_energy">   -122.89232528 </i>
    <i name="e_wo_entrp">   -122.85409707 </i>
    <i name="e_0_energy">   -122.87321118 </i>
   </energy>
  </scstep>
  <scstep>
   <time name="dav">   79.18   79.19</time>
   <time name="total">   98.46   98.48</time>
   <energy>
    <i name="e_fr_energy">   -122.88786969 </i>
    <i name="e_wo_entrp">   -122.84993262 </i>
    <i name="e_0_energy">   -122.86890116 </i>
   </energy>
  </scstep>
  <scstep>
   <time name="dav">   81.43   81.45</time>
   <time name="total">  100.83  100.85</time>
   <energy>
    <i name="e_fr_energy">   -122.88313482 </i>
    <i name="e_wo_entrp">   -122.84520179 </i>
    <i name="e_0_energy">   -122.86416831 </i>
   </energy>
  </scstep>
  <scstep>
   <time name="dav">   79.28   79.30</time>
   <time name="total">   98.59   98.62</time>
   <energy>
    <i name="e_fr_energy">   -122.88072445 </i>
    <i name="e_wo_entrp">   -122.84272867 </i>
    <i name="e_0_energy">   -122.86172656 </i>
   </energy>
  </scstep>
  <scstep>
   <time name="dav">   77.11   77.12</time>
   <time name="total">   95.98   96.00</time>
   <energy>
    <i name="e_fr_energy">   -122.88024964 </i>
    <i name="e_wo_entrp">   -122.84229411 </i>
    <i name="e_0_energy">   -122.86127187 </i>
   </energy>
  </scstep>
  <scstep>
   <time name="dav">   68.72   68.73</time>
   <time name="total">   87.50   87.52</time>
   <energy>
    <i name="e_fr_energy">   -122.88055806 </i>
    <i name="e_wo_entrp">   -122.84258330 </i>
    <i name="e_0_energy">   -122.86157068 </i>
   </energy>
  </scstep>
  <scstep>
   <time name="dav">   70.25   70.26</time>
   <time name="total">   89.56   89.58</time>
   <energy>
    <i name="e_fr_energy">   -122.88100175 </i>
    <i name="e_wo_entrp">   -122.84303773 </i>
    <i name="e_0_energy">   -122.86201974 </i>
   </energy>
  </scstep>
  <scstep>
   <time name="dav">   69.28   69.29</time>
   <time name="total">   89.35   89.37</time>
   <energy>
    <i name="e_fr_energy">   -122.88122669 </i>
    <i name="e_wo_entrp">   -122.84325826 </i>
    <i name="e_0_energy">   -122.86224247 </i>
   </energy>
  </scstep>
  <scstep>
   <time name="dav">   70.51   70.53</time>
   <time name="total">   89.47   89.49</time>
   <energy>
    <i name="e_fr_energy">   -122.88124143 </i>
    <i name="e_wo_entrp">   -122.84327475 </i>
    <i name="e_0_energy">   -122.86225809 </i>
   </energy>
  </scstep>
  <scstep>
   <time name="dav">   59.35   59.36</time>
   <time name="total">   78.20   78.22</time>
   <energy>
    <i name="e_fr_energy">   -122.88122047 </i>
    <i name="e_wo_entrp">   -122.84325529 </i>
    <i name="e_0_energy">   -122.86223788 </i>
   </energy>
  </scstep>
  <scstep>
   <time name="dav">   55.94   55.95</time>
   <time name="total">   74.79   74.81</time>
   <energy>
    <i name="e_fr_energy">   -122.88120880 </i>
    <i name="e_wo_entrp">   -122.84324248 </i>
    <i name="e_0_energy">   -122.86222564 </i>
   </energy>
  </scstep>
  <scstep>
   <time name="dav">   55.19   55.20</time>
   <time name="total">   74.05   74.07</time>
   <energy>
    <i name="e_fr_energy">   -122.88119016 </i>
    <i name="e_wo_entrp">   -122.84322343 </i>
    <i name="e_0_energy">   -122.86220680 </i>
   </energy>
  </scstep>
  <scstep>
   <time name="dav">   54.59   54.60</time>
   <time name="total">   73.45   73.47</time>
   <energy>
    <i name="e_fr_energy">   -122.88116468 </i>
    <i name="e_wo_entrp">   -122.84319793 </i>
    <i name="e_0_energy">   -122.86218131 </i>
   </energy>
  </scstep>
  <scstep>
   <time name="dav">   58.39   58.41</time>
   <time name="total">   77.16   77.18</time>
   <energy>
    <i name="e_fr_energy">   -122.88113081 </i>
    <i name="e_wo_entrp">   -122.84316395 </i>
    <i name="e_0_energy">   -122.86214738 </i>
   </energy>
  </scstep>
  <scstep>
   <time name="dav">   57.20   57.21</time>
   <time name="total">   75.96   75.97</time>
   <energy>
    <i name="e_fr_energy">   -122.88111035 </i>
    <i name="e_wo_entrp">   -122.84314350 </i>
    <i name="e_0_energy">   -122.86212693 </i>
   </energy>
  </scstep>
  <scstep>
   <time name="dav">   55.76   55.78</time>
   <time name="total">   74.58   74.60</time>
   <energy>
    <i name="e_fr_energy">   -122.88110162 </i>
    <i name="e_wo_entrp">   -122.84313474 </i>
    <i name="e_0_energy">   -122.86211818 </i>
   </energy>
  </scstep>
  <scstep>
   <time name="dav">   55.58   55.59</time>
   <time name="total">   74.36   74.37</time>
   <energy>
    <i name="e_fr_energy">   -122.88110515 </i>
    <i name="e_wo_entrp">   -122.84313825 </i>
    <i name="e_0_energy">   -122.86212170 </i>
   </energy>
  </scstep>
  <scstep>
   <time name="dav">   49.18   49.19</time>
   <time name="total">   67.95   67.97</time>
   <energy>
    <i name="e_fr_energy">   -122.88110748 </i>
    <i name="e_wo_entrp">   -122.84314059 </i>
    <i name="e_0_energy">   -122.86212404 </i>
   </energy>
  </scstep>
  <scstep>
   <time name="dav">   49.89   49.90</time>
   <time name="total">   64.48   64.49</time>
   <energy>
    <i name="alphaZ">     36.80884744 </i>
    <i name="ewald">  11986.75005333 </i>
    <i name="hartreedc"> -15124.14299271 </i>
    <i name="XCdc">    -80.02878335 </i>
    <i name="pawpsdc">   1157.23282288 </i>
    <i name="pawaedc">   -836.08784817 </i>
    <i name="eentropy">     -0.03796690 </i>
    <i name="bandstr">   -617.41650060 </i>
    <i name="atom">   3354.04126044 </i>
    <i name="e_fr_energy">   -122.88110764 </i>
    <i name="e_wo_entrp">   -122.84314073 </i>
    <i name="e_0_energy">   -122.86212419 </i>
   </energy>
  </scstep>
  <structure>
   <crystal>
    <varray name="basis" >
     <v>       3.54040000       0.00000000       0.00000000 </v>
     <v>      -1.77020000      10.29434800       0.00000000 </v>
     <v>       0.00000000       0.00000000      27.50142900 </v>
    </varray>
    <i name="volume">   1002.32009712 </i>
    <varray name="rec_basis" >
     <v>       0.28245396       0.04857034       0.00000000 </v>
     <v>       0.00000000       0.09714068       0.00000000 </v>
     <v>       0.00000000       0.00000000       0.03636175 </v>
    </varray>
   </crystal>
   <varray name="positions" >
    <v>       0.11402300       0.22804500       0.23316207 </v>
    <v>       0.91402300       0.92804500       0.51499159 </v>
    <v>       0.45808900       0.91617900       0.20939482 </v>
    <v>       0.25808900       0.61617900       0.49122434 </v>
    <v>       0.31085400       0.62170900       0.08414979 </v>
    <v>       0.31085400       0.62170900       0.36597930 </v>
    <v>       0.99923000       0.99846000       0.08631254 </v>
    <v>       0.99923000       0.99846000       0.36814206 </v>
    <v>       0.65492700       0.30985400       0.06041748 </v>
    <v>       0.65492700       0.30985400       0.34224700 </v>
    <v>       0.76973800       0.53947500       0.20725292 </v>
    <v>       0.56973800       0.23947500       0.48908244 </v>
    <v>       0.93971600       0.87943300       0.15783749 </v>
    <v>       0.73971600       0.57943300       0.43966701 </v>
    <v>       0.20515200       0.41030300       0.18578822 </v>
    <v>       0.00515200       0.11030300       0.46761774 </v>
    <v>       0.20184900       0.40369900       0.09969156 </v>
    <v>       0.20184900       0.40369900       0.38152107 </v>
    <v>       0.56380500       0.12761000       0.10779021 </v>
    <v>       0.56380500       0.12761000       0.38961973 </v>
    <v>       0.56710600       0.13421200       0.19387616 </v>
    <v>       0.36710600       0.83421200       0.47570568 </v>
    <v>       0.82923400       0.65846800       0.13571444 </v>
    <v>       0.62923400       0.35846800       0.41754396 </v>
   </varray>
  </structure>
  <varray name="forces" >
   <v>      -0.00427365      -0.01500306       0.00963126 </v>
   <v>      -0.03032973       0.06098657       0.02541439 </v>
   <v>       0.00034499      -0.00912879       0.10415437 </v>
   <v>      -0.26431671       0.10111978       0.80685960 </v>
   <v>      -0.00134810      -0.00091831       0.00188360 </v>
   <v>       0.47797585      -0.67356235       0.73936835 </v>
   <v>       0.00004258       0.01182169       0.01352347 </v>
   <v>       0.50273947       0.71499787       0.90928948 </v>
   <v>       0.00119647      -0.00524370      -0.00134716 </v>
   <v>       0.73597737      -0.78900835      -2.89703321 </v>
   <v>       0.00030071       0.00585850       0.11420742 </v>
   <v>      -0.34642997       0.32560617       0.07197538 </v>
   <v>       0.00274905      -0.00590389       0.01016975 </v>
   <v>      -0.06046380       0.69776593      -1.64836372 </v>
   <v>      -0.00449724       0.06976269       0.00576235 </v>
   <v>      -0.26609799      -0.85354154       0.07853318 </v>
   <v>       0.00152646      -0.01256111      -0.01157205 </v>
   <v>      -5.26895867       4.13014949      -4.99973488 </v>
   <v>      -0.00383258       0.02116119      -0.04307031 </v>
   <v>       0.39853483      -2.47740755      -1.48072879 </v>
   <v>      -0.00042998      -0.06609619       0.04395134 </v>
   <v>       0.00743543       0.22196001      -0.08132045 </v>
   <v>       0.00210919      -0.01678303       0.00199943 </v>
   <v>       4.12004601      -1.43603202       8.22644720 </v>
  </varray>
  <varray name="stress" >
   <v>      24.39770815      -5.68499817       0.57493047 </v>
   <v>      -5.68499841       6.63332000       0.25326491 </v>
   <v>       0.57493069       0.25326467      13.12554187 </v>
  </varray>
  <energy>
   <i name="e_fr_energy">   -122.88110764 </i>
   <i name="e_wo_entrp">   -122.86212419 </i>
   <i name="e_0_energy">     -0.03796690 </i>
  </energy>
  <time name="totalsc"> 2565.02 2565.63</time>
  <eigenvalues>
   <array>
    <dimension dim="1">band</dimension>
    <dimension dim="2">kpoint</dimension>
    <dimension dim="3">spin</dimension>
    <field>eigene</field>
    <field>occ</field>
    <set>
     <set comment="spin 1">
      <set comment="kpoint 1">
       <r>  -14.9807    1.0000 </r>
       <r>  -13.7049    1.0000 </r>
       <r>  -12.9612    1.0000 </r>
       <r>  -12.8895    1.0000 </r>
       <r>  -12.6532    1.0000 </r>
       <r>  -12.3619    1.0000 </r>
       <r>  -12.2516    1.0000 </r>
       <r>  -11.5999    1.0000 </r>
       <r>  -11.5722    1.0000 </r>
       <r>  -11.2346    1.0000 </r>
       <r>  -11.1525    1.0000 </r>
       <r>  -10.1496    1.0000 </r>
       <r>   -8.7133    1.0000 </r>
       <r>   -8.1907    1.0000 </r>
       <r>   -7.9923    1.0000 </r>
       <r>   -7.1872    1.0000 </r>
       <r>   -6.9896    1.0000 </r>
       <r>   -6.8740    1.0000 </r>
       <r>   -6.6570    1.0000 </r>
       <r>   -6.2515    1.0000 </r>
       <r>   -5.9733    1.0000 </r>
       <r>   -5.0692    1.0000 </r>
       <r>   -4.8955    1.0000 </r>
       <r>   -4.8297    1.0000 </r>
       <r>   -4.5303    1.0000 </r>
       <r>   -4.0280    1.0000 </r>
       <r>   -3.8689    1.0000 </r>
       <r>   -3.7974    1.0000 </r>
       <r>   -3.2666    1.0000 </r>
       <r>   -3.2467    1.0000 </r>
       <r>   -3.2246    1.0000 </r>
       <r>   -3.0019    1.0000 </r>
       <r>   -2.8460    1.0000 </r>
       <r>   -2.7649    1.0000 </r>
       <r>   -2.6007    1.0000 </r>
       <r>   -2.5629    1.0000 </r>
       <r>   -2.2190    1.0000 </r>
       <r>   -2.1688    1.0000 </r>
       <r>   -2.1234    1.0000 </r>
       <r>   -2.0346    1.0000 </r>
       <r>   -1.9431    1.0000 </r>
       <r>   -1.8923    1.0000 </r>
       <r>   -1.8048    1.0000 </r>
       <r>   -1.7335    1.0000 </r>
       <r>   -1.6756    1.0000 </r>
       <r>   -1.5941    1.0000 </r>
       <r>   -1.4145    1.0000 </r>
       <r>   -1.4023    1.0000 </r>
       <r>   -1.2813    1.0000 </r>
       <r>   -1.0602    1.0000 </r>
       <r>   -0.9908    1.0000 </r>
       <r>   -0.6158    1.0000 </r>
       <r>    0.3226    0.9055 </r>
       <r>    0.4035    0.5672 </r>
       <r>    0.6827    0.0001 </r>
       <r>    0.9475    0.0000 </r>
       <r>    1.0144    0.0000 </r>
       <r>    1.1474    0.0000 </r>
       <r>    1.1828    0.0000 </r>
       <r>    1.3610    0.0000 </r>
       <r>    1.5294    0.0000 </r>
       <r>    1.6373    0.0000 </r>
       <r>    1.7160    0.0000 </r>
       <r>    1.8581    0.0000 </r>
       <r>    2.0219    0.0000 </r>
       <r>    2.2674    0.0000 </r>
       <r>    2.3702    0.0000 </r>
       <r>    2.5110    0.0000 </r>
      </set>
      <set comment="kpoint 2">
       <r>  -14.9260    1.0000 </r>
       <r>  -13.6436    1.0000 </r>
       <r>  -12.9090    1.0000 </r>
       <r>  -12.8321    1.0000 </r>
       <r>  -12.5977    1.0000 </r>
       <r>  -12.3035    1.0000 </r>
       <r>  -12.1893    1.0000 </r>
       <r>  -11.5501    1.0000 </r>
       <r>  -11.5219    1.0000 </r>
       <r>  -11.1795    1.0000 </r>
       <r>  -11.1041    1.0000 </r>
       <r>  -10.1157    1.0000 </r>
       <r>   -8.6738    1.0000 </r>
       <r>   -8.2281    1.0000 </r>
       <r>   -7.9549    1.0000 </r>
       <r>   -7.1651    1.0000 </r>
       <r>   -6.9606    1.0000 </r>
       <r>   -6.8611    1.0000 </r>
       <r>   -6.6513    1.0000 </r>
       <r>   -6.2697    1.0000 </r>
       <r>   -5.9432    1.0000 </r>
       <r>   -5.3370    1.0000 </r>
       <r>   -5.0220    1.0000 </r>
       <r>   -4.8658    1.0000 </r>
       <r>   -4.4819    1.0000 </r>
       <r>   -4.0123    1.0000 </r>
       <r>   -3.9121    1.0000 </r>
       <r>   -3.8167    1.0000 </r>
       <r>   -3.6059    1.0000 </r>
       <r>   -3.4204    1.0000 </r>
       <r>   -3.3287    1.0000 </r>
       <r>   -3.3147    1.0000 </r>
       <r>   -3.1723    1.0000 </r>
       <r>   -2.9363    1.0000 </r>
       <r>   -2.8185    1.0000 </r>
       <r>   -2.6344    1.0000 </r>
       <r>   -2.4669    1.0000 </r>
       <r>   -2.3585    1.0000 </r>
       <r>   -2.2412    1.0000 </r>
       <r>   -2.1777    1.0000 </r>
       <r>   -2.1210    1.0000 </r>
       <r>   -2.0597    1.0000 </r>
       <r>   -1.9864    1.0000 </r>
       <r>   -1.9650    1.0000 </r>
       <r>   -1.8740    1.0000 </r>
       <r>   -1.7047    1.0000 </r>
       <r>   -1.6665    1.0000 </r>
       <r>   -1.3336    1.0000 </r>
       <r>   -1.1802    1.0000 </r>
       <r>   -1.0152    1.0000 </r>
       <r>   -0.8284    1.0000 </r>
       <r>   -0.5958    1.0000 </r>
       <r>    0.0935    1.0000 </r>
       <r>    0.4687    0.2260 </r>
       <r>    0.6619    0.0002 </r>
       <r>    0.9093    0.0000 </r>
       <r>    1.0730    0.0000 </r>
       <r>    1.3772    0.0000 </r>
       <r>    1.6029    0.0000 </r>
       <r>    1.6898    0.0000 </r>
       <r>    1.9233    0.0000 </r>
       <r>    1.9939    0.0000 </r>
       <r>    2.0784    0.0000 </r>
       <r>    2.1133    0.0000 </r>
       <r>    2.2138    0.0000 </r>
       <r>    2.4519    0.0000 </r>
       <r>    2.5988    0.0000 </r>
       <r>    2.6221    0.0000 </r>
      </set>
      <set comment="kpoint 3">
       <r>  -14.7649    1.0000 </r>
       <r>  -13.4606    1.0000 </r>
       <r>  -12.7532    1.0000 </r>
       <r>  -12.6615    1.0000 </r>
       <r>  -12.4332    1.0000 </r>
       <r>  -12.1313    1.0000 </r>
       <r>  -12.0066    1.0000 </r>
       <r>  -11.4058    1.0000 </r>
       <r>  -11.3744    1.0000 </r>
       <r>  -11.0178    1.0000 </r>
       <r>  -10.9653    1.0000 </r>
       <r>  -10.0259    1.0000 </r>
       <r>   -8.5659    1.0000 </r>
       <r>   -8.3237    1.0000 </r>
       <r>   -7.9132    1.0000 </r>
       <r>   -7.1450    1.0000 </r>
       <r>   -6.9211    1.0000 </r>
       <r>   -6.8372    1.0000 </r>
       <r>   -6.6636    1.0000 </r>
       <r>   -6.5638    1.0000 </r>
       <r>   -5.9085    1.0000 </r>
       <r>   -5.8310    1.0000 </r>
       <r>   -5.0751    1.0000 </r>
       <r>   -4.9854    1.0000 </r>
       <r>   -4.4365    1.0000 </r>
       <r>   -4.3537    1.0000 </r>
       <r>   -4.2671    1.0000 </r>
       <r>   -4.2401    1.0000 </r>
       <r>   -4.1193    1.0000 </r>
       <r>   -3.9078    1.0000 </r>
       <r>   -3.7790    1.0000 </r>
       <r>   -3.6894    1.0000 </r>
       <r>   -3.4850    1.0000 </r>
       <r>   -3.2834    1.0000 </r>
       <r>   -3.1247    1.0000 </r>
       <r>   -3.0559    1.0000 </r>
       <r>   -2.9749    1.0000 </r>
       <r>   -2.8955    1.0000 </r>
       <r>   -2.6688    1.0000 </r>
       <r>   -2.5430    1.0000 </r>
       <r>   -2.4931    1.0000 </r>
       <r>   -2.3064    1.0000 </r>
       <r>   -2.1725    1.0000 </r>
       <r>   -2.0739    1.0000 </r>
       <r>   -1.9292    1.0000 </r>
       <r>   -1.8193    1.0000 </r>
       <r>   -1.8085    1.0000 </r>
       <r>   -1.3826    1.0000 </r>
       <r>   -1.2285    1.0000 </r>
       <r>   -1.1329    1.0000 </r>
       <r>   -0.9946    1.0000 </r>
       <r>   -0.6217    1.0000 </r>
       <r>   -0.0156    1.0000 </r>
       <r>    0.4868    0.1567 </r>
       <r>    0.8001    0.0000 </r>
       <r>    0.8613    0.0000 </r>
       <r>    1.1131    0.0000 </r>
       <r>    1.7672    0.0000 </r>
       <r>    2.0844    0.0000 </r>
       <r>    2.1998    0.0000 </r>
       <r>    2.2945    0.0000 </r>
       <r>    2.3598    0.0000 </r>
       <r>    2.4611    0.0000 </r>
       <r>    2.5456    0.0000 </r>
       <r>    2.6198    0.0000 </r>
       <r>    2.7824    0.0000 </r>
       <r>    2.8886    0.0000 </r>
       <r>    2.9108    0.0000 </r>
      </set>
      <set comment="kpoint 4">
       <r>  -14.5074    1.0000 </r>
       <r>  -13.1596    1.0000 </r>
       <r>  -12.4968    1.0000 </r>
       <r>  -12.3828    1.0000 </r>
       <r>  -12.1668    1.0000 </r>
       <r>  -11.8552    1.0000 </r>
       <r>  -11.7185    1.0000 </r>
       <r>  -11.1859    1.0000 </r>
       <r>  -11.1432    1.0000 </r>
       <r>  -10.7636    1.0000 </r>
       <r>  -10.7613    1.0000 </r>
       <r>   -9.9266    1.0000 </r>
       <r>   -8.5296    1.0000 </r>
       <r>   -8.4150    1.0000 </r>
       <r>   -7.9885    1.0000 </r>
       <r>   -7.5645    1.0000 </r>
       <r>   -7.0233    1.0000 </r>
       <r>   -6.9088    1.0000 </r>
       <r>   -6.8268    1.0000 </r>
       <r>   -6.7938    1.0000 </r>
       <r>   -6.0631    1.0000 </r>
       <r>   -5.8915    1.0000 </r>
       <r>   -5.5017    1.0000 </r>
       <r>   -5.3440    1.0000 </r>
       <r>   -4.9754    1.0000 </r>
       <r>   -4.9119    1.0000 </r>
       <r>   -4.7807    1.0000 </r>
       <r>   -4.6689    1.0000 </r>
       <r>   -4.4478    1.0000 </r>
       <r>   -4.3299    1.0000 </r>
       <r>   -4.1826    1.0000 </r>
       <r>   -3.9261    1.0000 </r>
       <r>   -3.8404    1.0000 </r>
       <r>   -3.6307    1.0000 </r>
       <r>   -3.4915    1.0000 </r>
       <r>   -3.2592    1.0000 </r>
       <r>   -3.1714    1.0000 </r>
       <r>   -3.1242    1.0000 </r>
       <r>   -2.7996    1.0000 </r>
       <r>   -2.7347    1.0000 </r>
       <r>   -2.6438    1.0000 </r>
       <r>   -2.5654    1.0000 </r>
       <r>   -2.4279    1.0000 </r>
       <r>   -2.0671    1.0000 </r>
       <r>   -2.0008    1.0000 </r>
       <r>   -1.9748    1.0000 </r>
       <r>   -1.8886    1.0000 </r>
       <r>   -1.7343    1.0000 </r>
       <r>   -1.6124    1.0000 </r>
       <r>   -1.2790    1.0000 </r>
       <r>   -1.1015    1.0000 </r>
       <r>   -0.9059    1.0000 </r>
       <r>   -0.1964    1.0000 </r>
       <r>    0.4197    0.4766 </r>
       <r>    0.7643    0.0000 </r>
       <r>    1.0550    0.0000 </r>
       <r>    1.2974    0.0000 </r>
       <r>    1.7223    0.0000 </r>
       <r>    1.8728    0.0000 </r>
       <r>    1.9787    0.0000 </r>
       <r>    2.1338    0.0000 </r>
       <r>    2.2372    0.0000 </r>
       <r>    2.4010    0.0000 </r>
       <r>    2.5208    0.0000 </r>
       <r>    2.5755    0.0000 </r>
       <r>    2.7213    0.0000 </r>
       <r>    2.8118    0.0000 </r>
       <r>    2.9850    0.0000 </r>
      </set>
      <set comment="kpoint 5">
       <r>  -14.1770    1.0000 </r>
       <r>  -12.7479    1.0000 </r>
       <r>  -12.1483    1.0000 </r>
       <r>  -12.0082    1.0000 </r>
       <r>  -11.8155    1.0000 </r>
       <r>  -11.4998    1.0000 </r>
       <r>  -11.3599    1.0000 </r>
       <r>  -10.9390    1.0000 </r>
       <r>  -10.8709    1.0000 </r>
       <r>  -10.5762    1.0000 </r>
       <r>  -10.4437    1.0000 </r>
       <r>   -9.9289    1.0000 </r>
       <r>   -8.8183    1.0000 </r>
       <r>   -8.4045    1.0000 </r>
       <r>   -8.2516    1.0000 </r>
       <r>   -8.1403    1.0000 </r>
       <r>   -7.3538    1.0000 </r>
       <r>   -7.1625    1.0000 </r>
       <r>   -7.0750    1.0000 </r>
       <r>   -6.9583    1.0000 </r>
       <r>   -6.4778    1.0000 </r>
       <r>   -6.3151    1.0000 </r>
       <r>   -6.1322    1.0000 </r>
       <r>   -5.9059    1.0000 </r>
       <r>   -5.3727    1.0000 </r>
       <r>   -5.2087    1.0000 </r>
       <r>   -4.9681    1.0000 </r>
       <r>   -4.8621    1.0000 </r>
       <r>   -4.7513    1.0000 </r>
       <r>   -4.4724    1.0000 </r>
       <r>   -4.3744    1.0000 </r>
       <r>   -4.1608    1.0000 </r>
       <r>   -3.9461    1.0000 </r>
       <r>   -3.5601    1.0000 </r>
       <r>   -3.5137    1.0000 </r>
       <r>   -3.4231    1.0000 </r>
       <r>   -3.2446    1.0000 </r>
       <r>   -3.1627    1.0000 </r>
       <r>   -3.0782    1.0000 </r>
       <r>   -2.9044    1.0000 </r>
       <r>   -2.7732    1.0000 </r>
       <r>   -2.6446    1.0000 </r>
       <r>   -2.5166    1.0000 </r>
       <r>   -2.2460    1.0000 </r>
       <r>   -2.2017    1.0000 </r>
       <r>   -2.0546    1.0000 </r>
       <r>   -2.0337    1.0000 </r>
       <r>   -1.9940    1.0000 </r>
       <r>   -1.8652    1.0000 </r>
       <r>   -1.6042    1.0000 </r>
       <r>   -1.3999    1.0000 </r>
       <r>   -0.9224    1.0000 </r>
       <r>   -0.1893    1.0000 </r>
       <r>    0.1433    0.9999 </r>
       <r>    0.5898    0.0069 </r>
       <r>    0.9728    0.0000 </r>
       <r>    1.2376    0.0000 </r>
       <r>    1.5103    0.0000 </r>
       <r>    1.6468    0.0000 </r>
       <r>    1.8480    0.0000 </r>
       <r>    1.8729    0.0000 </r>
       <r>    2.0261    0.0000 </r>
       <r>    2.1082    0.0000 </r>
       <r>    2.2095    0.0000 </r>
       <r>    2.2957    0.0000 </r>
       <r>    2.5236    0.0000 </r>
       <r>    2.6611    0.0000 </r>
       <r>    2.8527    0.0000 </r>
      </set>
      <set comment="kpoint 6">
       <r>  -13.8270    1.0000 </r>
       <r>  -12.2397    1.0000 </r>
       <r>  -11.7288    1.0000 </r>
       <r>  -11.5665    1.0000 </r>
       <r>  -11.4189    1.0000 </r>
       <r>  -11.1341    1.0000 </r>
       <r>  -11.0168    1.0000 </r>
       <r>  -10.7830    1.0000 </r>
       <r>  -10.6986    1.0000 </r>
       <r>  -10.6156    1.0000 </r>
       <r>  -10.1352    1.0000 </r>
       <r>  -10.0694    1.0000 </r>
       <r>   -8.9938    1.0000 </r>
       <r>   -8.6240    1.0000 </r>
       <r>   -8.5419    1.0000 </r>
       <r>   -8.3767    1.0000 </r>
       <r>   -7.6976    1.0000 </r>
       <r>   -7.6197    1.0000 </r>
       <r>   -7.5838    1.0000 </r>
       <r>   -7.2389    1.0000 </r>
       <r>   -6.9245    1.0000 </r>
       <r>   -6.8839    1.0000 </r>
       <r>   -6.8242    1.0000 </r>
       <r>   -6.4759    1.0000 </r>
       <r>   -5.3738    1.0000 </r>
       <r>   -5.2499    1.0000 </r>
       <r>   -4.8454    1.0000 </r>
       <r>   -4.7447    1.0000 </r>
       <r>   -4.6843    1.0000 </r>
       <r>   -4.4053    1.0000 </r>
       <r>   -4.2363    1.0000 </r>
       <r>   -4.2078    1.0000 </r>
       <r>   -3.9753    1.0000 </r>
       <r>   -3.8176    1.0000 </r>
       <r>   -3.5720    1.0000 </r>
       <r>   -3.5209    1.0000 </r>
       <r>   -3.4278    1.0000 </r>
       <r>   -3.3099    1.0000 </r>
       <r>   -3.0960    1.0000 </r>
       <r>   -2.9838    1.0000 </r>
       <r>   -2.8491    1.0000 </r>
       <r>   -2.6652    1.0000 </r>
       <r>   -2.5728    1.0000 </r>
       <r>   -2.4358    1.0000 </r>
       <r>   -2.3415    1.0000 </r>
       <r>   -2.2609    1.0000 </r>
       <r>   -2.2246    1.0000 </r>
       <r>   -2.1658    1.0000 </r>
       <r>   -2.0161    1.0000 </r>
       <r>   -1.8699    1.0000 </r>
       <r>   -1.5594    1.0000 </r>
       <r>   -0.8697    1.0000 </r>
       <r>   -0.2815    1.0000 </r>
       <r>    0.0780    1.0000 </r>
       <r>    0.3830    0.6773 </r>
       <r>    0.8312    0.0000 </r>
       <r>    1.1632    0.0000 </r>
       <r>    1.3681    0.0000 </r>
       <r>    1.4884    0.0000 </r>
       <r>    1.5358    0.0000 </r>
       <r>    1.6459    0.0000 </r>
       <r>    1.9134    0.0000 </r>
       <r>    1.9303    0.0000 </r>
       <r>    2.0916    0.0000 </r>
       <r>    2.1226    0.0000 </r>
       <r>    2.2377    0.0000 </r>
       <r>    2.3753    0.0000 </r>
       <r>    2.6065    0.0000 </r>
      </set>
      <set comment="kpoint 7">
       <r>  -13.5733    1.0000 </r>
       <r>  -11.6669    1.0000 </r>
       <r>  -11.3071    1.0000 </r>
       <r>  -11.1496    1.0000 </r>
       <r>  -11.1241    1.0000 </r>
       <r>  -11.0021    1.0000 </r>
       <r>  -10.9645    1.0000 </r>
       <r>  -10.8906    1.0000 </r>
       <r>  -10.7925    1.0000 </r>
       <r>  -10.7160    1.0000 </r>
       <r>  -10.2555    1.0000 </r>
       <r>   -9.7923    1.0000 </r>
       <r>   -8.8977    1.0000 </r>
       <r>   -8.8486    1.0000 </r>
       <r>   -8.6066    1.0000 </r>
       <r>   -8.4127    1.0000 </r>
       <r>   -8.2416    1.0000 </r>
       <r>   -7.8108    1.0000 </r>
       <r>   -7.7416    1.0000 </r>
       <r>   -7.6322    1.0000 </r>
       <r>   -7.4523    1.0000 </r>
       <r>   -7.3385    1.0000 </r>
       <r>   -7.2384    1.0000 </r>
       <r>   -6.5962    1.0000 </r>
       <r>   -5.2478    1.0000 </r>
       <r>   -5.0814    1.0000 </r>
       <r>   -4.7714    1.0000 </r>
       <r>   -4.6449    1.0000 </r>
       <r>   -4.5281    1.0000 </r>
       <r>   -4.3638    1.0000 </r>
       <r>   -4.2174    1.0000 </r>
       <r>   -4.1018    1.0000 </r>
       <r>   -3.9881    1.0000 </r>
       <r>   -3.8017    1.0000 </r>
       <r>   -3.7453    1.0000 </r>
       <r>   -3.5140    1.0000 </r>
       <r>   -3.4377    1.0000 </r>
       <r>   -3.3975    1.0000 </r>
       <r>   -3.1797    1.0000 </r>
       <r>   -3.1412    1.0000 </r>
       <r>   -3.0252    1.0000 </r>
       <r>   -2.8538    1.0000 </r>
       <r>   -2.7318    1.0000 </r>
       <r>   -2.5649    1.0000 </r>
       <r>   -2.4912    1.0000 </r>
       <r>   -2.3397    1.0000 </r>
       <r>   -2.2432    1.0000 </r>
       <r>   -2.1566    1.0000 </r>
       <r>   -2.0291    1.0000 </r>
       <r>   -1.8612    1.0000 </r>
       <r>   -1.6705    1.0000 </r>
       <r>   -0.8582    1.0000 </r>
       <r>   -0.3061    1.0000 </r>
       <r>    0.0824    1.0000 </r>
       <r>    0.2804    0.9719 </r>
       <r>    0.7029    0.0000 </r>
       <r>    1.1369    0.0000 </r>
       <r>    1.1854    0.0000 </r>
       <r>    1.2840    0.0000 </r>
       <r>    1.4320    0.0000 </r>
       <r>    1.6112    0.0000 </r>
       <r>    1.7942    0.0000 </r>
       <r>    1.8657    0.0000 </r>
       <r>    1.9175    0.0000 </r>
       <r>    2.0365    0.0000 </r>
       <r>    2.1646    0.0000 </r>
       <r>    2.2487    0.0000 </r>
       <r>    2.4295    0.0000 </r>
      </set>
      <set comment="kpoint 8">
       <r>  -14.9795    1.0000 </r>
       <r>  -13.6501    1.0000 </r>
       <r>  -13.1345    1.0000 </r>
       <r>  -12.9119    1.0000 </r>
       <r>  -12.6537    1.0000 </r>
       <r>  -12.3359    1.0000 </r>
       <r>  -12.0373    1.0000 </r>
       <r>  -11.6402    1.0000 </r>
       <r>  -11.5830    1.0000 </r>
       <r>  -11.2279    1.0000 </r>
       <r>  -11.1617    1.0000 </r>
       <r>  -10.1134    1.0000 </r>
       <r>   -8.7965    1.0000 </r>
       <r>   -8.6670    1.0000 </r>
       <r>   -7.5576    1.0000 </r>
       <r>   -7.2114    1.0000 </r>
       <r>   -6.9358    1.0000 </r>
       <r>   -6.8342    1.0000 </r>
       <r>   -6.7521    1.0000 </r>
       <r>   -6.0494    1.0000 </r>
       <r>   -5.8964    1.0000 </r>
       <r>   -5.1845    1.0000 </r>
       <r>   -4.8186    1.0000 </r>
       <r>   -4.7962    1.0000 </r>
       <r>   -4.4149    1.0000 </r>
       <r>   -4.1662    1.0000 </r>
       <r>   -3.9334    1.0000 </r>
       <r>   -3.6725    1.0000 </r>
       <r>   -3.4701    1.0000 </r>
       <r>   -3.3685    1.0000 </r>
       <r>   -3.2941    1.0000 </r>
       <r>   -2.8700    1.0000 </r>
       <r>   -2.8490    1.0000 </r>
       <r>   -2.7598    1.0000 </r>
       <r>   -2.5640    1.0000 </r>
       <r>   -2.5199    1.0000 </r>
       <r>   -2.4162    1.0000 </r>
       <r>   -2.2525    1.0000 </r>
       <r>   -2.1755    1.0000 </r>
       <r>   -2.1078    1.0000 </r>
       <r>   -2.0471    1.0000 </r>
       <r>   -1.7991    1.0000 </r>
       <r>   -1.7877    1.0000 </r>
       <r>   -1.6441    1.0000 </r>
       <r>   -1.5819    1.0000 </r>
       <r>   -1.5248    1.0000 </r>
       <r>   -1.4849    1.0000 </r>
       <r>   -1.3495    1.0000 </r>
       <r>   -1.2995    1.0000 </r>
       <r>   -1.1097    1.0000 </r>
       <r>   -0.9443    1.0000 </r>
       <r>   -0.6436    1.0000 </r>
       <r>    0.2219    0.9969 </r>
       <r>    0.4261    0.4404 </r>
       <r>    0.6838    0.0001 </r>
       <r>    0.9599    0.0000 </r>
       <r>    1.0494    0.0000 </r>
       <r>    1.1845    0.0000 </r>
       <r>    1.2367    0.0000 </r>
       <r>    1.4349    0.0000 </r>
       <r>    1.5335    0.0000 </r>
       <r>    1.5874    0.0000 </r>
       <r>    1.7402    0.0000 </r>
       <r>    1.8211    0.0000 </r>
       <r>    2.0988    0.0000 </r>
       <r>    2.4302    0.0000 </r>
       <r>    2.4810    0.0000 </r>
       <r>    2.5444    0.0000 </r>
      </set>
      <set comment="kpoint 9">
       <r>  -14.9247    1.0000 </r>
       <r>  -13.5735    1.0000 </r>
       <r>  -13.1152    1.0000 </r>
       <r>  -12.8583    1.0000 </r>
       <r>  -12.5969    1.0000 </r>
       <r>  -12.2737    1.0000 </r>
       <r>  -11.9369    1.0000 </r>
       <r>  -11.5985    1.0000 </r>
       <r>  -11.5324    1.0000 </r>
       <r>  -11.1730    1.0000 </r>
       <r>  -11.1174    1.0000 </r>
       <r>  -10.0710    1.0000 </r>
       <r>   -8.7848    1.0000 </r>
       <r>   -8.7129    1.0000 </r>
       <r>   -7.5101    1.0000 </r>
       <r>   -7.1927    1.0000 </r>
       <r>   -6.9439    1.0000 </r>
       <r>   -6.8425    1.0000 </r>
       <r>   -6.6832    1.0000 </r>
       <r>   -5.9926    1.0000 </r>
       <r>   -5.8507    1.0000 </r>
       <r>   -5.4146    1.0000 </r>
       <r>   -5.0728    1.0000 </r>
       <r>   -4.8339    1.0000 </r>
       <r>   -4.3936    1.0000 </r>
       <r>   -4.1996    1.0000 </r>
       <r>   -3.9172    1.0000 </r>
       <r>   -3.7925    1.0000 </r>
       <r>   -3.5843    1.0000 </r>
       <r>   -3.5125    1.0000 </r>
       <r>   -3.4242    1.0000 </r>
       <r>   -3.2263    1.0000 </r>
       <r>   -3.1795    1.0000 </r>
       <r>   -2.8898    1.0000 </r>
       <r>   -2.7846    1.0000 </r>
       <r>   -2.6577    1.0000 </r>
       <r>   -2.5859    1.0000 </r>
       <r>   -2.4473    1.0000 </r>
       <r>   -2.3675    1.0000 </r>
       <r>   -2.2640    1.0000 </r>
       <r>   -2.1516    1.0000 </r>
       <r>   -2.0428    1.0000 </r>
       <r>   -1.9964    1.0000 </r>
       <r>   -1.9222    1.0000 </r>
       <r>   -1.8916    1.0000 </r>
       <r>   -1.6333    1.0000 </r>
       <r>   -1.5093    1.0000 </r>
       <r>   -1.3013    1.0000 </r>
       <r>   -1.2264    1.0000 </r>
       <r>   -1.0464    1.0000 </r>
       <r>   -0.8194    1.0000 </r>
       <r>   -0.5787    1.0000 </r>
       <r>    0.0910    1.0000 </r>
       <r>    0.3321    0.8811 </r>
       <r>    0.6735    0.0001 </r>
       <r>    0.9325    0.0000 </r>
       <r>    1.1698    0.0000 </r>
       <r>    1.4217    0.0000 </r>
       <r>    1.5963    0.0000 </r>
       <r>    1.7640    0.0000 </r>
       <r>    1.7885    0.0000 </r>
       <r>    1.9286    0.0000 </r>
       <r>    2.0902    0.0000 </r>
       <r>    2.1652    0.0000 </r>
       <r>    2.3740    0.0000 </r>
       <r>    2.4993    0.0000 </r>
       <r>    2.7784    0.0000 </r>
       <r>    2.8203    0.0000 </r>
      </set>
      <set comment="kpoint 10">
       <r>  -14.7635    1.0000 </r>
       <r>  -13.3772    1.0000 </r>
       <r>  -12.9784    1.0000 </r>
       <r>  -12.6881    1.0000 </r>
       <r>  -12.4309    1.0000 </r>
       <r>  -12.1036    1.0000 </r>
       <r>  -11.7383    1.0000 </r>
       <r>  -11.4583    1.0000 </r>
       <r>  -11.3742    1.0000 </r>
       <r>  -11.0202    1.0000 </r>
       <r>  -10.9760    1.0000 </r>
       <r>   -9.9752    1.0000 </r>
       <r>   -8.8081    1.0000 </r>
       <r>   -8.6523    1.0000 </r>
       <r>   -7.4785    1.0000 </r>
       <r>   -7.2042    1.0000 </r>
       <r>   -6.9792    1.0000 </r>
       <r>   -6.8202    1.0000 </r>
       <r>   -6.6533    1.0000 </r>
       <r>   -6.2647    1.0000 </r>
       <r>   -5.8629    1.0000 </r>
       <r>   -5.8016    1.0000 </r>
       <r>   -5.1990    1.0000 </r>
       <r>   -4.9905    1.0000 </r>
       <r>   -4.5485    1.0000 </r>
       <r>   -4.4788    1.0000 </r>
       <r>   -4.2753    1.0000 </r>
       <r>   -4.2323    1.0000 </r>
       <r>   -4.1066    1.0000 </r>
       <r>   -3.9060    1.0000 </r>
       <r>   -3.7685    1.0000 </r>
       <r>   -3.5783    1.0000 </r>
       <r>   -3.3772    1.0000 </r>
       <r>   -3.1914    1.0000 </r>
       <r>   -3.1176    1.0000 </r>
       <r>   -3.0891    1.0000 </r>
       <r>   -2.9330    1.0000 </r>
       <r>   -2.8290    1.0000 </r>
       <r>   -2.7563    1.0000 </r>
       <r>   -2.6165    1.0000 </r>
       <r>   -2.5512    1.0000 </r>
       <r>   -2.4642    1.0000 </r>
       <r>   -2.2607    1.0000 </r>
       <r>   -2.0793    1.0000 </r>
       <r>   -2.0385    1.0000 </r>
       <r>   -1.7815    1.0000 </r>
       <r>   -1.6502    1.0000 </r>
       <r>   -1.3182    1.0000 </r>
       <r>   -1.2931    1.0000 </r>
       <r>   -1.0817    1.0000 </r>
       <r>   -1.0161    1.0000 </r>
       <r>   -0.6077    1.0000 </r>
       <r>    0.0197    1.0000 </r>
       <r>    0.4191    0.4800 </r>
       <r>    0.7240    0.0000 </r>
       <r>    0.8249    0.0000 </r>
       <r>    1.1916    0.0000 </r>
       <r>    1.5126    0.0000 </r>
       <r>    1.9406    0.0000 </r>
       <r>    2.0979    0.0000 </r>
       <r>    2.2170    0.0000 </r>
       <r>    2.2566    0.0000 </r>
       <r>    2.5925    0.0000 </r>
       <r>    2.6321    0.0000 </r>
       <r>    2.7348    0.0000 </r>
       <r>    2.9048    0.0000 </r>
       <r>    2.9434    0.0000 </r>
       <r>    2.9614    0.0000 </r>
      </set>
      <set comment="kpoint 11">
       <r>  -14.5060    1.0000 </r>
       <r>  -13.0662    1.0000 </r>
       <r>  -12.7265    1.0000 </r>
       <r>  -12.4062    1.0000 </r>
       <r>  -12.1634    1.0000 </r>
       <r>  -11.8368    1.0000 </r>
       <r>  -11.4611    1.0000 </r>
       <r>  -11.2356    1.0000 </r>
       <r>  -11.1191    1.0000 </r>
       <r>  -10.7891    1.0000 </r>
       <r>  -10.7583    1.0000 </r>
       <r>   -9.8712    1.0000 </r>
       <r>   -8.9352    1.0000 </r>
       <r>   -8.5096    1.0000 </r>
       <r>   -7.6481    1.0000 </r>
       <r>   -7.5614    1.0000 </r>
       <r>   -6.9997    1.0000 </r>
       <r>   -6.8622    1.0000 </r>
       <r>   -6.8071    1.0000 </r>
       <r>   -6.7314    1.0000 </r>
       <r>   -6.0707    1.0000 </r>
       <r>   -5.9740    1.0000 </r>
       <r>   -5.4421    1.0000 </r>
       <r>   -5.3669    1.0000 </r>
       <r>   -5.1869    1.0000 </r>
       <r>   -4.8978    1.0000 </r>
       <r>   -4.8266    1.0000 </r>
       <r>   -4.7221    1.0000 </r>
       <r>   -4.4356    1.0000 </r>
       <r>   -4.2722    1.0000 </r>
       <r>   -4.1327    1.0000 </r>
       <r>   -3.8834    1.0000 </r>
       <r>   -3.7379    1.0000 </r>
       <r>   -3.4398    1.0000 </r>
       <r>   -3.3611    1.0000 </r>
       <r>   -3.2911    1.0000 </r>
       <r>   -3.2530    1.0000 </r>
       <r>   -3.0353    1.0000 </r>
       <r>   -2.8145    1.0000 </r>
       <r>   -2.7533    1.0000 </r>
       <r>   -2.6898    1.0000 </r>
       <r>   -2.6157    1.0000 </r>
       <r>   -2.3629    1.0000 </r>
       <r>   -2.1557    1.0000 </r>
       <r>   -2.0657    1.0000 </r>
       <r>   -1.9656    1.0000 </r>
       <r>   -1.9306    1.0000 </r>
       <r>   -1.8669    1.0000 </r>
       <r>   -1.5462    1.0000 </r>
       <r>   -1.2211    1.0000 </r>
       <r>   -1.0777    1.0000 </r>
       <r>   -0.9358    1.0000 </r>
       <r>   -0.1567    1.0000 </r>
       <r>    0.3682    0.7485 </r>
       <r>    0.6731    0.0001 </r>
       <r>    1.0439    0.0000 </r>
       <r>    1.1628    0.0000 </r>
       <r>    1.3554    0.0000 </r>
       <r>    1.4872    0.0000 </r>
       <r>    1.8806    0.0000 </r>
       <r>    2.0891    0.0000 </r>
       <r>    2.1921    0.0000 </r>
       <r>    2.4110    0.0000 </r>
       <r>    2.5568    0.0000 </r>
       <r>    2.6200    0.0000 </r>
       <r>    2.8575    0.0000 </r>
       <r>    2.9339    0.0000 </r>
       <r>    3.0993    0.0000 </r>
      </set>
      <set comment="kpoint 12">
       <r>  -14.1759    1.0000 </r>
       <r>  -12.6500    1.0000 </r>
       <r>  -12.3669    1.0000 </r>
       <r>  -12.0243    1.0000 </r>
       <r>  -11.8124    1.0000 </r>
       <r>  -11.4975    1.0000 </r>
       <r>  -11.1470    1.0000 </r>
       <r>  -10.9710    1.0000 </r>
       <r>  -10.8156    1.0000 </r>
       <r>  -10.5533    1.0000 </r>
       <r>  -10.5125    1.0000 </r>
       <r>   -9.8644    1.0000 </r>
       <r>   -9.1339    1.0000 </r>
       <r>   -8.4607    1.0000 </r>
       <r>   -8.1630    1.0000 </r>
       <r>   -7.8740    1.0000 </r>
       <r>   -7.3121    1.0000 </r>
       <r>   -7.2720    1.0000 </r>
       <r>   -7.1294    1.0000 </r>
       <r>   -6.9226    1.0000 </r>
       <r>   -6.5775    1.0000 </r>
       <r>   -6.3424    1.0000 </r>
       <r>   -6.0861    1.0000 </r>
       <r>   -5.8598    1.0000 </r>
       <r>   -5.5406    1.0000 </r>
       <r>   -5.2552    1.0000 </r>
       <r>   -5.1012    1.0000 </r>
       <r>   -4.8499    1.0000 </r>
       <r>   -4.5928    1.0000 </r>
       <r>   -4.5023    1.0000 </r>
       <r>   -4.1798    1.0000 </r>
       <r>   -4.1216    1.0000 </r>
       <r>   -3.8602    1.0000 </r>
       <r>   -3.5260    1.0000 </r>
       <r>   -3.5006    1.0000 </r>
       <r>   -3.3494    1.0000 </r>
       <r>   -3.1670    1.0000 </r>
       <r>   -3.0968    1.0000 </r>
       <r>   -3.0311    1.0000 </r>
       <r>   -2.9058    1.0000 </r>
       <r>   -2.6565    1.0000 </r>
       <r>   -2.5944    1.0000 </r>
       <r>   -2.4873    1.0000 </r>
       <r>   -2.4548    1.0000 </r>
       <r>   -2.2869    1.0000 </r>
       <r>   -2.1273    1.0000 </r>
       <r>   -2.0797    1.0000 </r>
       <r>   -2.0118    1.0000 </r>
       <r>   -1.8965    1.0000 </r>
       <r>   -1.6139    1.0000 </r>
       <r>   -1.4512    1.0000 </r>
       <r>   -0.8992    1.0000 </r>
       <r>   -0.1635    1.0000 </r>
       <r>    0.1146    1.0000 </r>
       <r>    0.4583    0.2726 </r>
       <r>    0.9366    0.0000 </r>
       <r>    1.0672    0.0000 </r>
       <r>    1.1081    0.0000 </r>
       <r>    1.3891    0.0000 </r>
       <r>    1.7091    0.0000 </r>
       <r>    1.9546    0.0000 </r>
       <r>    2.0262    0.0000 </r>
       <r>    2.1300    0.0000 </r>
       <r>    2.2479    0.0000 </r>
       <r>    2.2977    0.0000 </r>
       <r>    2.4620    0.0000 </r>
       <r>    2.5311    0.0000 </r>
       <r>    2.8168    0.0000 </r>
      </set>
      <set comment="kpoint 13">
       <r>  -13.8264    1.0000 </r>
       <r>  -12.1471    1.0000 </r>
       <r>  -11.9161    1.0000 </r>
       <r>  -11.5709    1.0000 </r>
       <r>  -11.4181    1.0000 </r>
       <r>  -11.1479    1.0000 </r>
       <r>  -10.8891    1.0000 </r>
       <r>  -10.7595    1.0000 </r>
       <r>  -10.6755    1.0000 </r>
       <r>  -10.6281    1.0000 </r>
       <r>  -10.1909    1.0000 </r>
       <r>  -10.0068    1.0000 </r>
       <r>   -9.1241    1.0000 </r>
       <r>   -8.6212    1.0000 </r>
       <r>   -8.3678    1.0000 </r>
       <r>   -8.2765    1.0000 </r>
       <r>   -7.9417    1.0000 </r>
       <r>   -7.7053    1.0000 </r>
       <r>   -7.5281    1.0000 </r>
       <r>   -7.2347    1.0000 </r>
       <r>   -6.9601    1.0000 </r>
       <r>   -6.8609    1.0000 </r>
       <r>   -6.8146    1.0000 </r>
       <r>   -6.4316    1.0000 </r>
       <r>   -5.5046    1.0000 </r>
       <r>   -5.2446    1.0000 </r>
       <r>   -4.9809    1.0000 </r>
       <r>   -4.9201    1.0000 </r>
       <r>   -4.6285    1.0000 </r>
       <r>   -4.2773    1.0000 </r>
       <r>   -4.0862    1.0000 </r>
       <r>   -4.0232    1.0000 </r>
       <r>   -3.9365    1.0000 </r>
       <r>   -3.6843    1.0000 </r>
       <r>   -3.5125    1.0000 </r>
       <r>   -3.4512    1.0000 </r>
       <r>   -3.3122    1.0000 </r>
       <r>   -3.2683    1.0000 </r>
       <r>   -3.1069    1.0000 </r>
       <r>   -3.0623    1.0000 </r>
       <r>   -2.8804    1.0000 </r>
       <r>   -2.7298    1.0000 </r>
       <r>   -2.6119    1.0000 </r>
       <r>   -2.4613    1.0000 </r>
       <r>   -2.3183    1.0000 </r>
       <r>   -2.3018    1.0000 </r>
       <r>   -2.2176    1.0000 </r>
       <r>   -2.1942    1.0000 </r>
       <r>   -2.0524    1.0000 </r>
       <r>   -1.9518    1.0000 </r>
       <r>   -1.6220    1.0000 </r>
       <r>   -0.8302    1.0000 </r>
       <r>   -0.2539    1.0000 </r>
       <r>   -0.0256    1.0000 </r>
       <r>    0.3620    0.7753 </r>
       <r>    0.8420    0.0000 </r>
       <r>    1.0511    0.0000 </r>
       <r>    1.1480    0.0000 </r>
       <r>    1.3195    0.0000 </r>
       <r>    1.4477    0.0000 </r>
       <r>    1.6750    0.0000 </r>
       <r>    1.7607    0.0000 </r>
       <r>    1.8926    0.0000 </r>
       <r>    1.9716    0.0000 </r>
       <r>    2.0367    0.0000 </r>
       <r>    2.1865    0.0000 </r>
       <r>    2.4702    0.0000 </r>
       <r>    2.5311    0.0000 </r>
      </set>
      <set comment="kpoint 14">
       <r>  -13.5731    1.0000 </r>
       <r>  -11.5989    1.0000 </r>
       <r>  -11.4209    1.0000 </r>
       <r>  -11.1378    1.0000 </r>
       <r>  -11.1334    1.0000 </r>
       <r>  -11.0244    1.0000 </r>
       <r>  -10.9743    1.0000 </r>
       <r>  -10.8606    1.0000 </r>
       <r>  -10.7490    1.0000 </r>
       <r>  -10.7384    1.0000 </r>
       <r>  -10.2092    1.0000 </r>
       <r>   -9.8051    1.0000 </r>
       <r>   -8.8879    1.0000 </r>
       <r>   -8.7154    1.0000 </r>
       <r>   -8.5643    1.0000 </r>
       <r>   -8.4941    1.0000 </r>
       <r>   -8.4282    1.0000 </r>
       <r>   -7.7797    1.0000 </r>
       <r>   -7.6903    1.0000 </r>
       <r>   -7.6624    1.0000 </r>
       <r>   -7.4810    1.0000 </r>
       <r>   -7.2967    1.0000 </r>
       <r>   -7.2280    1.0000 </r>
       <r>   -6.6138    1.0000 </r>
       <r>   -5.2278    1.0000 </r>
       <r>   -5.1817    1.0000 </r>
       <r>   -4.8875    1.0000 </r>
       <r>   -4.6276    1.0000 </r>
       <r>   -4.4541    1.0000 </r>
       <r>   -4.2997    1.0000 </r>
       <r>   -4.2356    1.0000 </r>
       <r>   -4.0937    1.0000 </r>
       <r>   -3.8865    1.0000 </r>
       <r>   -3.8170    1.0000 </r>
       <r>   -3.6682    1.0000 </r>
       <r>   -3.5055    1.0000 </r>
       <r>   -3.4197    1.0000 </r>
       <r>   -3.2451    1.0000 </r>
       <r>   -3.1614    1.0000 </r>
       <r>   -3.1519    1.0000 </r>
       <r>   -3.0234    1.0000 </r>
       <r>   -2.8690    1.0000 </r>
       <r>   -2.7755    1.0000 </r>
       <r>   -2.7450    1.0000 </r>
       <r>   -2.5332    1.0000 </r>
       <r>   -2.3091    1.0000 </r>
       <r>   -2.2506    1.0000 </r>
       <r>   -2.1666    1.0000 </r>
       <r>   -2.0192    1.0000 </r>
       <r>   -1.8448    1.0000 </r>
       <r>   -1.6996    1.0000 </r>
       <r>   -0.8370    1.0000 </r>
       <r>   -0.3096    1.0000 </r>
       <r>   -0.0048    1.0000 </r>
       <r>    0.3379    0.8640 </r>
       <r>    0.7052    0.0000 </r>
       <r>    1.1301    0.0000 </r>
       <r>    1.2312    0.0000 </r>
       <r>    1.2933    0.0000 </r>
       <r>    1.3501    0.0000 </r>
       <r>    1.4126    0.0000 </r>
       <r>    1.7151    0.0000 </r>
       <r>    1.8376    0.0000 </r>
       <r>    1.8719    0.0000 </r>
       <r>    1.9779    0.0000 </r>
       <r>    2.2097    0.0000 </r>
       <r>    2.3131    0.0000 </r>
       <r>    2.3589    0.0000 </r>
      </set>
      <set comment="kpoint 15">
       <r>  -13.5734    1.0000 </r>
       <r>  -11.7000    1.0000 </r>
       <r>  -11.2311    1.0000 </r>
       <r>  -11.1545    1.0000 </r>
       <r>  -11.1126    1.0000 </r>
       <r>  -10.9842    1.0000 </r>
       <r>  -10.9656    1.0000 </r>
       <r>  -10.9199    1.0000 </r>
       <r>  -10.8577    1.0000 </r>
       <r>  -10.6476    1.0000 </r>
       <r>  -10.3137    1.0000 </r>
       <r>   -9.7741    1.0000 </r>
       <r>   -8.9234    1.0000 </r>
       <r>   -8.9052    1.0000 </r>
       <r>   -8.6004    1.0000 </r>
       <r>   -8.4175    1.0000 </r>
       <r>   -8.1067    1.0000 </r>
       <r>   -7.8584    1.0000 </r>
       <r>   -7.7743    1.0000 </r>
       <r>   -7.5673    1.0000 </r>
       <r>   -7.4439    1.0000 </r>
       <r>   -7.3812    1.0000 </r>
       <r>   -7.2071    1.0000 </r>
       <r>   -6.6320    1.0000 </r>
       <r>   -5.2315    1.0000 </r>
       <r>   -4.9257    1.0000 </r>
       <r>   -4.7759    1.0000 </r>
       <r>   -4.7330    1.0000 </r>
       <r>   -4.5360    1.0000 </r>
       <r>   -4.3685    1.0000 </r>
       <r>   -4.1605    1.0000 </r>
       <r>   -4.1427    1.0000 </r>
       <r>   -4.0461    1.0000 </r>
       <r>   -3.8608    1.0000 </r>
       <r>   -3.8102    1.0000 </r>
       <r>   -3.5653    1.0000 </r>
       <r>   -3.5177    1.0000 </r>
       <r>   -3.3510    1.0000 </r>
       <r>   -3.1379    1.0000 </r>
       <r>   -3.1056    1.0000 </r>
       <r>   -2.9659    1.0000 </r>
       <r>   -2.8348    1.0000 </r>
       <r>   -2.7474    1.0000 </r>
       <r>   -2.5878    1.0000 </r>
       <r>   -2.4901    1.0000 </r>
       <r>   -2.3274    1.0000 </r>
       <r>   -2.2612    1.0000 </r>
       <r>   -2.2321    1.0000 </r>
       <r>   -1.9327    1.0000 </r>
       <r>   -1.8431    1.0000 </r>
       <r>   -1.6470    1.0000 </r>
       <r>   -0.8374    1.0000 </r>
       <r>   -0.3420    1.0000 </r>
       <r>    0.1017    1.0000 </r>
       <r>    0.2938    0.9574 </r>
       <r>    0.6895    0.0001 </r>
       <r>    1.1255    0.0000 </r>
       <r>    1.1769    0.0000 </r>
       <r>    1.2828    0.0000 </r>
       <r>    1.5460    0.0000 </r>
       <r>    1.5914    0.0000 </r>
       <r>    1.7397    0.0000 </r>
       <r>    1.9458    0.0000 </r>
       <r>    2.0193    0.0000 </r>
       <r>    2.1699    0.0000 </r>
       <r>    2.2333    0.0000 </r>
       <r>    2.2856    0.0000 </r>
       <r>    2.3991    0.0000 </r>
      </set>
      <set comment="kpoint 16">
       <r>  -13.8272    1.0000 </r>
       <r>  -12.2660    1.0000 </r>
       <r>  -11.6439    1.0000 </r>
       <r>  -11.5664    1.0000 </r>
       <r>  -11.4168    1.0000 </r>
       <r>  -11.1431    1.0000 </r>
       <r>  -11.0976    1.0000 </r>
       <r>  -10.7858    1.0000 </r>
       <r>  -10.6425    1.0000 </r>
       <r>  -10.6111    1.0000 </r>
       <r>  -10.2519    1.0000 </r>
       <r>  -10.0078    1.0000 </r>
       <r>   -8.9051    1.0000 </r>
       <r>   -8.6607    1.0000 </r>
       <r>   -8.6240    1.0000 </r>
       <r>   -8.3705    1.0000 </r>
       <r>   -7.6811    1.0000 </r>
       <r>   -7.6068    1.0000 </r>
       <r>   -7.4925    1.0000 </r>
       <r>   -7.2943    1.0000 </r>
       <r>   -6.9652    1.0000 </r>
       <r>   -6.8387    1.0000 </r>
       <r>   -6.7687    1.0000 </r>
       <r>   -6.5410    1.0000 </r>
       <r>   -5.2459    1.0000 </r>
       <r>   -5.2147    1.0000 </r>
       <r>   -5.0126    1.0000 </r>
       <r>   -4.7301    1.0000 </r>
       <r>   -4.5713    1.0000 </r>
       <r>   -4.4361    1.0000 </r>
       <r>   -4.2519    1.0000 </r>
       <r>   -4.2245    1.0000 </r>
       <r>   -3.9860    1.0000 </r>
       <r>   -3.8842    1.0000 </r>
       <r>   -3.6596    1.0000 </r>
       <r>   -3.5631    1.0000 </r>
       <r>   -3.4202    1.0000 </r>
       <r>   -3.3290    1.0000 </r>
       <r>   -3.1215    1.0000 </r>
       <r>   -2.9490    1.0000 </r>
       <r>   -2.8420    1.0000 </r>
       <r>   -2.6831    1.0000 </r>
       <r>   -2.6516    1.0000 </r>
       <r>   -2.4153    1.0000 </r>
       <r>   -2.3426    1.0000 </r>
       <r>   -2.2559    1.0000 </r>
       <r>   -2.2394    1.0000 </r>
       <r>   -2.0938    1.0000 </r>
       <r>   -1.9856    1.0000 </r>
       <r>   -1.7976    1.0000 </r>
       <r>   -1.5341    1.0000 </r>
       <r>   -0.8518    1.0000 </r>
       <r>   -0.3058    1.0000 </r>
       <r>    0.0955    1.0000 </r>
       <r>    0.4419    0.3546 </r>
       <r>    0.7780    0.0000 </r>
       <r>    1.1156    0.0000 </r>
       <r>    1.4316    0.0000 </r>
       <r>    1.4771    0.0000 </r>
       <r>    1.6196    0.0000 </r>
       <r>    1.7467    0.0000 </r>
       <r>    1.9818    0.0000 </r>
       <r>    2.0623    0.0000 </r>
       <r>    2.1186    0.0000 </r>
       <r>    2.2154    0.0000 </r>
       <r>    2.2706    0.0000 </r>
       <r>    2.4337    0.0000 </r>
       <r>    2.5466    0.0000 </r>
      </set>
      <set comment="kpoint 17">
       <r>  -14.1771    1.0000 </r>
       <r>  -12.7601    1.0000 </r>
       <r>  -12.1067    1.0000 </r>
       <r>  -12.0066    1.0000 </r>
       <r>  -11.8148    1.0000 </r>
       <r>  -11.5042    1.0000 </r>
       <r>  -11.4067    1.0000 </r>
       <r>  -10.9306    1.0000 </r>
       <r>  -10.8565    1.0000 </r>
       <r>  -10.5823    1.0000 </r>
       <r>  -10.4456    1.0000 </r>
       <r>   -9.9535    1.0000 </r>
       <r>   -8.7198    1.0000 </r>
       <r>   -8.4020    1.0000 </r>
       <r>   -8.3474    1.0000 </r>
       <r>   -8.0991    1.0000 </r>
       <r>   -7.3973    1.0000 </r>
       <r>   -7.1673    1.0000 </r>
       <r>   -7.0497    1.0000 </r>
       <r>   -6.9735    1.0000 </r>
       <r>   -6.4466    1.0000 </r>
       <r>   -6.3101    1.0000 </r>
       <r>   -6.1413    1.0000 </r>
       <r>   -5.8928    1.0000 </r>
       <r>   -5.3137    1.0000 </r>
       <r>   -5.2151    1.0000 </r>
       <r>   -5.0560    1.0000 </r>
       <r>   -4.8101    1.0000 </r>
       <r>   -4.7574    1.0000 </r>
       <r>   -4.4721    1.0000 </r>
       <r>   -4.3981    1.0000 </r>
       <r>   -4.1354    1.0000 </r>
       <r>   -3.9219    1.0000 </r>
       <r>   -3.6248    1.0000 </r>
       <r>   -3.6062    1.0000 </r>
       <r>   -3.3552    1.0000 </r>
       <r>   -3.2427    1.0000 </r>
       <r>   -3.1749    1.0000 </r>
       <r>   -3.0951    1.0000 </r>
       <r>   -2.9129    1.0000 </r>
       <r>   -2.7805    1.0000 </r>
       <r>   -2.6745    1.0000 </r>
       <r>   -2.4926    1.0000 </r>
       <r>   -2.2465    1.0000 </r>
       <r>   -2.1742    1.0000 </r>
       <r>   -2.0474    1.0000 </r>
       <r>   -2.0182    1.0000 </r>
       <r>   -1.9868    1.0000 </r>
       <r>   -1.8580    1.0000 </r>
       <r>   -1.6283    1.0000 </r>
       <r>   -1.4060    1.0000 </r>
       <r>   -0.8997    1.0000 </r>
       <r>   -0.1856    1.0000 </r>
       <r>    0.1314    1.0000 </r>
       <r>    0.6794    0.0001 </r>
       <r>    0.9143    0.0000 </r>
       <r>    1.2606    0.0000 </r>
       <r>    1.5692    0.0000 </r>
       <r>    1.7615    0.0000 </r>
       <r>    1.8347    0.0000 </r>
       <r>    1.8944    0.0000 </r>
       <r>    2.0711    0.0000 </r>
       <r>    2.1736    0.0000 </r>
       <r>    2.2279    0.0000 </r>
       <r>    2.3330    0.0000 </r>
       <r>    2.4989    0.0000 </r>
       <r>    2.6042    0.0000 </r>
       <r>    2.8108    0.0000 </r>
      </set>
      <set comment="kpoint 18">
       <r>  -14.5072    1.0000 </r>
       <r>  -13.1554    1.0000 </r>
       <r>  -12.5114    1.0000 </r>
       <r>  -12.3852    1.0000 </r>
       <r>  -12.1671    1.0000 </r>
       <r>  -11.8555    1.0000 </r>
       <r>  -11.7009    1.0000 </r>
       <r>  -11.1890    1.0000 </r>
       <r>  -11.1324    1.0000 </r>
       <r>  -10.7685    1.0000 </r>
       <r>  -10.7606    1.0000 </r>
       <r>   -9.9320    1.0000 </r>
       <r>   -8.5674    1.0000 </r>
       <r>   -8.4204    1.0000 </r>
       <r>   -7.9470    1.0000 </r>
       <r>   -7.5270    1.0000 </r>
       <r>   -7.1055    1.0000 </r>
       <r>   -6.8752    1.0000 </r>
       <r>   -6.8184    1.0000 </r>
       <r>   -6.7960    1.0000 </r>
       <r>   -6.0555    1.0000 </r>
       <r>   -5.8943    1.0000 </r>
       <r>   -5.4973    1.0000 </r>
       <r>   -5.3294    1.0000 </r>
       <r>   -4.9937    1.0000 </r>
       <r>   -4.9324    1.0000 </r>
       <r>   -4.7744    1.0000 </r>
       <r>   -4.6735    1.0000 </r>
       <r>   -4.4602    1.0000 </r>
       <r>   -4.3396    1.0000 </r>
       <r>   -4.1490    1.0000 </r>
       <r>   -3.9058    1.0000 </r>
       <r>   -3.8431    1.0000 </r>
       <r>   -3.6110    1.0000 </r>
       <r>   -3.4867    1.0000 </r>
       <r>   -3.2609    1.0000 </r>
       <r>   -3.1621    1.0000 </r>
       <r>   -3.1262    1.0000 </r>
       <r>   -2.8352    1.0000 </r>
       <r>   -2.7542    1.0000 </r>
       <r>   -2.6611    1.0000 </r>
       <r>   -2.5938    1.0000 </r>
       <r>   -2.3099    1.0000 </r>
       <r>   -2.0650    1.0000 </r>
       <r>   -2.0266    1.0000 </r>
       <r>   -1.9796    1.0000 </r>
       <r>   -1.8991    1.0000 </r>
       <r>   -1.7562    1.0000 </r>
       <r>   -1.6114    1.0000 </r>
       <r>   -1.2787    1.0000 </r>
       <r>   -1.1367    1.0000 </r>
[...]
       <r>    2.5568    0.0000 </r>
      </set>
      <set comment="kpoint 54">
       <r>  -13.5732    1.0000 </r>
       <r>  -11.6558    1.0000 </r>
       <r>  -11.3288    1.0000 </r>
       <r>  -11.1417    1.0000 </r>
       <r>  -11.1270    1.0000 </r>
       <r>  -11.0099    1.0000 </r>
       <r>  -10.9929    1.0000 </r>
       <r>  -10.8836    1.0000 </r>
       <r>  -10.7794    1.0000 </r>
       <r>  -10.6867    1.0000 </r>
       <r>  -10.2615    1.0000 </r>
       <r>   -9.7841    1.0000 </r>
       <r>   -8.9016    1.0000 </r>
       <r>   -8.8255    1.0000 </r>
       <r>   -8.6075    1.0000 </r>
       <r>   -8.4360    1.0000 </r>
       <r>   -8.2816    1.0000 </r>
       <r>   -7.8338    1.0000 </r>
       <r>   -7.7320    1.0000 </r>
       <r>   -7.5905    1.0000 </r>
       <r>   -7.4573    1.0000 </r>
       <r>   -7.3277    1.0000 </r>
       <r>   -7.1987    1.0000 </r>
       <r>   -6.6431    1.0000 </r>
       <r>   -5.2412    1.0000 </r>
       <r>   -5.1096    1.0000 </r>
       <r>   -4.8523    1.0000 </r>
       <r>   -4.6416    1.0000 </r>
       <r>   -4.4749    1.0000 </r>
       <r>   -4.3047    1.0000 </r>
       <r>   -4.2360    1.0000 </r>
       <r>   -4.0946    1.0000 </r>
       <r>   -3.9279    1.0000 </r>
       <r>   -3.7962    1.0000 </r>
       <r>   -3.7281    1.0000 </r>
       <r>   -3.5346    1.0000 </r>
       <r>   -3.4238    1.0000 </r>
       <r>   -3.3555    1.0000 </r>
       <r>   -3.2011    1.0000 </r>
       <r>   -3.1466    1.0000 </r>
       <r>   -3.0509    1.0000 </r>
       <r>   -2.8664    1.0000 </r>
       <r>   -2.7692    1.0000 </r>
       <r>   -2.5431    1.0000 </r>
       <r>   -2.4787    1.0000 </r>
       <r>   -2.3706    1.0000 </r>
       <r>   -2.2977    1.0000 </r>
       <r>   -2.2274    1.0000 </r>
       <r>   -1.9269    1.0000 </r>
       <r>   -1.8411    1.0000 </r>
       <r>   -1.6717    1.0000 </r>
       <r>   -0.8051    1.0000 </r>
       <r>   -0.3420    1.0000 </r>
       <r>    0.0023    1.0000 </r>
       <r>    0.3497    0.8240 </r>
       <r>    0.6744    0.0001 </r>
       <r>    1.1206    0.0000 </r>
       <r>    1.1478    0.0000 </r>
       <r>    1.2595    0.0000 </r>
       <r>    1.4190    0.0000 </r>
       <r>    1.5766    0.0000 </r>
       <r>    1.7292    0.0000 </r>
       <r>    1.8211    0.0000 </r>
       <r>    1.9304    0.0000 </r>
       <r>    2.0381    0.0000 </r>
       <r>    2.2342    0.0000 </r>
       <r>    2.2975    0.0000 </r>
       <r>    2.4374    0.0000 </r>
      </set>
     </set>
    </set>
   </array>
  </eigenvalues>
  <separator name="orbital magnetization" >
   <v name="MAGDIPOLOUT">      0.00000000      0.00000000      0.00000000</v>
  </separator>
  <dos>
   <i name="efermi">      0.41552149 </i>
   <total>
    <array>
     <dimension dim="1">gridpoints</dimension>
     <dimension dim="2">spin</dimension>
     <field>energy</field>
     <field>total</field>
     <field>integrated</field>
     <set>
      <set comment="spin 1">
       <r>   -15.9807     0.0000     0.0000 </r>
       <r>   -15.9137     0.0000     0.0000 </r>
       <r>   -15.8468     0.0000     0.0000 </r>
       <r>   -15.7799     0.0000     0.0000 </r>
       <r>   -15.7129     0.0000     0.0000 </r>
       <r>   -15.6460     0.0000     0.0000 </r>
       <r>   -15.5791     0.0000     0.0000 </r>
       <r>   -15.5121     0.0000     0.0000 </r>
       <r>   -15.4452     0.0000     0.0000 </r>
       <r>   -15.3782     0.0000     0.0000 </r>
       <r>   -15.3113     0.0000     0.0000 </r>
       <r>   -15.2444     0.0002     0.0000 </r>
       <r>   -15.1774     0.0065     0.0004 </r>
       <r>   -15.1105     0.0869     0.0063 </r>
       <r>   -15.0435     0.5412     0.0425 </r>
       <r>   -14.9766     1.6268     0.1514 </r>
       <r>   -14.9097     2.4467     0.3152 </r>
       <r>   -14.8427     2.1718     0.4605 </r>
       <r>   -14.7758     1.9224     0.5892 </r>
       <r>   -14.7089     1.6913     0.7024 </r>
       <r>   -14.6419     0.9317     0.7648 </r>
       <r>   -14.5750     0.8161     0.8194 </r>
       <r>   -14.5080     1.5114     0.9206 </r>
       <r>   -14.4411     1.5220     1.0225 </r>
       <r>   -14.3742     0.6849     1.0683 </r>
       <r>   -14.3072     0.2655     1.0861 </r>
       <r>   -14.2403     0.7060     1.1334 </r>
       <r>   -14.1733     1.5369     1.2362 </r>
       <r>   -14.1064     1.4777     1.3352 </r>
       <r>   -14.0395     0.6240     1.3769 </r>
       <r>   -13.9725     0.1963     1.3901 </r>
       <r>   -13.9056     0.5293     1.4255 </r>
       <r>   -13.8387     1.4072     1.5197 </r>
       <r>   -13.7717     1.7909     1.6396 </r>
       <r>   -13.7048     1.6415     1.7494 </r>
       <r>   -13.6378     2.3897     1.9094 </r>
       <r>   -13.5709     3.5561     2.1474 </r>
       <r>   -13.5040     3.4548     2.3787 </r>
       <r>   -13.4370     2.4836     2.5450 </r>
       <r>   -13.3701     1.8423     2.6683 </r>
       <r>   -13.3031     1.5415     2.7715 </r>
       <r>   -13.2362     1.4554     2.8689 </r>
       <r>   -13.1693     1.9188     2.9973 </r>
       <r>   -13.1023     2.7426     3.1809 </r>
       <r>   -13.0354     3.0952     3.3881 </r>
       <r>   -12.9685     3.0098     3.5896 </r>
       <r>   -12.9015     3.3446     3.8135 </r>
       <r>   -12.8346     3.9469     4.0777 </r>
       <r>   -12.7676     4.4370     4.3747 </r>
       <r>   -12.7007     5.2888     4.7287 </r>
       <r>   -12.6338     5.7003     5.1103 </r>
       <r>   -12.5668     4.6728     5.4231 </r>
       <r>   -12.4999     3.6203     5.6654 </r>
       <r>   -12.4329     4.2183     5.9478 </r>
       <r>   -12.3660     5.3571     6.3064 </r>
       <r>   -12.2991     5.6642     6.6855 </r>
       <r>   -12.2321     5.7646     7.0714 </r>
       <r>   -12.1652     6.2558     7.4901 </r>
       <r>   -12.0982     6.3991     7.9185 </r>
       <r>   -12.0313     5.6655     8.2977 </r>
       <r>   -11.9644     4.7453     8.6154 </r>
       <r>   -11.8974     4.4841     8.9155 </r>
       <r>   -11.8305     5.3633     9.2745 </r>
       <r>   -11.7636     5.8728     9.6677 </r>
       <r>   -11.6966     6.0369    10.0718 </r>
       <r>   -11.6297     7.3674    10.5649 </r>
       <r>   -11.5627     9.1362    11.1765 </r>
       <r>   -11.4958     9.8226    11.8340 </r>
       <r>   -11.4289     9.4817    12.4687 </r>
       <r>   -11.3619     8.1824    13.0164 </r>
       <r>   -11.2950     6.3816    13.4436 </r>
       <r>   -11.2280     7.6423    13.9551 </r>
       <r>   -11.1611    12.3594    14.7825 </r>
       <r>   -11.0942    14.3961    15.7461 </r>
       <r>   -11.0272    12.5928    16.5891 </r>
       <r>   -10.9603    11.5184    17.3601 </r>
       <r>   -10.8934    10.3811    18.0550 </r>
       <r>   -10.8264     9.6033    18.6978 </r>
       <r>   -10.7595    10.1666    19.3784 </r>
       <r>   -10.6925     9.3010    20.0009 </r>
       <r>   -10.6256     7.3564    20.4934 </r>
       <r>   -10.5587     5.8213    20.8830 </r>
       <r>   -10.4917     4.0194    21.1521 </r>
       <r>   -10.4248     2.3494    21.3094 </r>
       <r>   -10.3578     1.5979    21.4163 </r>
       <r>   -10.2909     2.0869    21.5560 </r>
       <r>   -10.2240     2.9988    21.7568 </r>
       <r>   -10.1570     3.5690    21.9957 </r>
       <r>   -10.0901     4.4352    22.2925 </r>
       <r>   -10.0232     5.4851    22.6597 </r>
       <r>    -9.9562     5.9206    23.0560 </r>
       <r>    -9.8893     5.3880    23.4167 </r>
       <r>    -9.8223     4.1993    23.6978 </r>
       <r>    -9.7554     2.7998    23.8852 </r>
       <r>    -9.6885     1.3239    23.9738 </r>
       <r>    -9.6215     0.3455    23.9970 </r>
       <r>    -9.5546     0.0430    23.9998 </r>
       <r>    -9.4876     0.0024    24.0000 </r>
       <r>    -9.4207     0.0001    24.0000 </r>
       <r>    -9.3538     0.0018    24.0001 </r>
       <r>    -9.2868     0.0318    24.0023 </r>
       <r>    -9.2199     0.2500    24.0190 </r>
       <r>    -9.1530     0.9187    24.0805 </r>
       <r>    -9.0860     1.7351    24.1966 </r>
       <r>    -9.0191     2.3373    24.3531 </r>
       <r>    -8.9521     3.7639    24.6050 </r>
       <r>    -8.8852     5.8016    24.9934 </r>
       <r>    -8.8183     6.3850    25.4208 </r>
       <r>    -8.7513     6.0041    25.8227 </r>
       <r>    -8.6844     6.6065    26.2649 </r>
       <r>    -8.6174     8.0060    26.8008 </r>
       <r>    -8.5505     8.3255    27.3581 </r>
       <r>    -8.4836     7.7436    27.8765 </r>
       <r>    -8.4166     7.7948    28.3983 </r>
       <r>    -8.3497     7.2777    28.8854 </r>
       <r>    -8.2828     5.4106    29.2476 </r>
       <r>    -8.2158     3.9144    29.5096 </r>
       <r>    -8.1489     3.2437    29.7267 </r>
       <r>    -8.0819     2.7511    29.9109 </r>
       <r>    -8.0150     2.4757    30.0766 </r>
       <r>    -7.9481     3.0755    30.2825 </r>
       <r>    -7.8811     3.7017    30.5303 </r>
       <r>    -7.8142     4.0481    30.8012 </r>
       <r>    -7.7472     5.0168    31.1371 </r>
       <r>    -7.6803     6.4953    31.5719 </r>
       <r>    -7.6134     7.7466    32.0904 </r>
       <r>    -7.5464     8.2868    32.6451 </r>
       <r>    -7.4795     7.7691    33.1652 </r>
       <r>    -7.4125     6.7139    33.6146 </r>
       <r>    -7.3456     6.2974    34.0361 </r>
       <r>    -7.2787     7.4233    34.5330 </r>
       <r>    -7.2117     9.3119    35.1564 </r>
       <r>    -7.1448     9.2628    35.7764 </r>
       <r>    -7.0779     7.3087    36.2656 </r>
       <r>    -7.0109     7.6271    36.7762 </r>
       <r>    -6.9440    11.1083    37.5197 </r>
       <r>    -6.8770    14.1019    38.4637 </r>
       <r>    -6.8101    14.1881    39.4134 </r>
       <r>    -6.7432    11.0444    40.1527 </r>
       <r>    -6.6762     7.5167    40.6559 </r>
       <r>    -6.6093     6.0327    41.0597 </r>
       <r>    -6.5423     5.5142    41.4288 </r>
       <r>    -6.4754     5.0489    41.7668 </r>
       <r>    -6.4085     4.2495    42.0512 </r>
       <r>    -6.3415     3.4525    42.2823 </r>
       <r>    -6.2746     3.2239    42.4981 </r>
       <r>    -6.2077     2.9572    42.6961 </r>
       <r>    -6.1407     3.1963    42.9101 </r>
       <r>    -6.0738     4.3198    43.1992 </r>
       <r>    -6.0068     5.0400    43.5366 </r>
       <r>    -5.9399     5.7475    43.9213 </r>
       <r>    -5.8730     7.0567    44.3937 </r>
       <r>    -5.8060     6.9876    44.8614 </r>
       <r>    -5.7391     4.8195    45.1840 </r>
       <r>    -5.6721     2.3126    45.3388 </r>
       <r>    -5.6052     1.2078    45.4197 </r>
       <r>    -5.5383     2.0725    45.5584 </r>
       <r>    -5.4713     3.8848    45.8185 </r>
       <r>    -5.4044     5.3470    46.1764 </r>
       <r>    -5.3375     6.7508    46.6283 </r>
       <r>    -5.2705     8.6267    47.2057 </r>
       <r>    -5.2036     9.8642    47.8660 </r>
       <r>    -5.1366     9.0971    48.4750 </r>
       <r>    -5.0697     8.2666    49.0283 </r>
       <r>    -5.0028     8.4769    49.5958 </r>
       <r>    -4.9358     9.1100    50.2056 </r>
       <r>    -4.8689    10.3262    50.8968 </r>
       <r>    -4.8019    11.2031    51.6467 </r>
       <r>    -4.7350    10.3018    52.3363 </r>
       <r>    -4.6681     8.4480    52.9018 </r>
       <r>    -4.6011     7.2062    53.3842 </r>
       <r>    -4.5342     7.6248    53.8946 </r>
       <r>    -4.4673     9.8818    54.5560 </r>
       <r>    -4.4003    11.5632    55.3301 </r>
       <r>    -4.3334    11.6216    56.1080 </r>
       <r>    -4.2664    12.1765    56.9231 </r>
       <r>    -4.1995    13.3101    57.8140 </r>
       <r>    -4.1326    13.3652    58.7087 </r>
       <r>    -4.0656    11.7730    59.4967 </r>
       <r>    -3.9987    10.1400    60.1755 </r>
       <r>    -3.9317    11.4369    60.9411 </r>
       <r>    -3.8648    13.4885    61.8440 </r>
       <r>    -3.7979    12.8760    62.7059 </r>
       <r>    -3.7309    10.7387    63.4247 </r>
       <r>    -3.6640     9.6964    64.0738 </r>
       <r>    -3.5971    11.0905    64.8162 </r>
       <r>    -3.5301    14.0593    65.7573 </r>
       <r>    -3.4632    16.0366    66.8307 </r>
       <r>    -3.3962    16.0025    67.9019 </r>
       <r>    -3.3293    15.6663    68.9506 </r>
       <r>    -3.2624    16.0407    70.0244 </r>
       <r>    -3.1954    16.9354    71.1580 </r>
       <r>    -3.1285    17.4399    72.3254 </r>
       <r>    -3.0615    16.3092    73.4171 </r>
       <r>    -2.9946    13.6921    74.3336 </r>
       <r>    -2.9277    12.5586    75.1743 </r>
       <r>    -2.8607    14.3581    76.1354 </r>
       <r>    -2.7938    16.7050    77.2536 </r>
       <r>    -2.7268    18.0547    78.4622 </r>
       <r>    -2.6599    18.2649    79.6848 </r>
       <r>    -2.5930    17.6179    80.8641 </r>
       <r>    -2.5260    16.5059    81.9690 </r>
       <r>    -2.4591    14.8236    82.9613 </r>
       <r>    -2.3922    13.3571    83.8554 </r>
       <r>    -2.3252    14.7286    84.8413 </r>
       <r>    -2.2583    18.3052    86.0666 </r>
       <r>    -2.1913    20.1675    87.4166 </r>
       <r>    -2.1244    19.7992    88.7419 </r>
       <r>    -2.0575    20.0074    90.0812 </r>
       <r>    -1.9905    20.2604    91.4374 </r>
       <r>    -1.9236    18.9098    92.7032 </r>
       <r>    -1.8566    16.7897    93.8271 </r>
       <r>    -1.7897    13.4658    94.7284 </r>
       <r>    -1.7228    10.3321    95.4201 </r>
       <r>    -1.6558    10.1557    96.0999 </r>
       <r>    -1.5889    10.9198    96.8308 </r>
       <r>    -1.5220     9.3401    97.4560 </r>
       <r>    -1.4550     7.1866    97.9371 </r>
       <r>    -1.3881     6.7585    98.3895 </r>
       <r>    -1.3211     7.7687    98.9095 </r>
       <r>    -1.2542     8.2628    99.4626 </r>
       <r>    -1.1873     7.2231    99.9461 </r>
       <r>    -1.1203     6.8351   100.4036 </r>
       <r>    -1.0534     7.6598   100.9164 </r>
       <r>    -0.9864     7.7688   101.4364 </r>
       <r>    -0.9195     7.8229   101.9601 </r>
       <r>    -0.8526     8.3206   102.5170 </r>
       <r>    -0.7856     6.8502   102.9756 </r>
       <r>    -0.7187     4.0000   103.2433 </r>
       <r>    -0.6518     3.4112   103.4717 </r>
       <r>    -0.5848     4.0217   103.7409 </r>
       <r>    -0.5179     2.8048   103.9286 </r>
       <r>    -0.4509     1.1569   104.0061 </r>
       <r>    -0.3840     1.2886   104.0923 </r>
       <r>    -0.3171     2.8784   104.2850 </r>
       <r>    -0.2501     4.1410   104.5622 </r>
       <r>    -0.1832     4.4649   104.8611 </r>
       <r>    -0.1162     3.9746   105.1271 </r>
       <r>    -0.0493     3.6215   105.3695 </r>
       <r>     0.0176     5.1038   105.7112 </r>
       <r>     0.0846     6.8153   106.1674 </r>
       <r>     0.1515     6.1494   106.5790 </r>
       <r>     0.2184     4.0347   106.8491 </r>
       <r>     0.2854     3.9075   107.1107 </r>
       <r>     0.3523     6.0741   107.5173 </r>
       <r>     0.4193     7.6345   108.0283 </r>
       <r>     0.4862     6.5041   108.4637 </r>
       <r>     0.5531     4.1856   108.7439 </r>
       <r>     0.6201     4.1555   109.0220 </r>
       <r>     0.6870     6.6633   109.4680 </r>
       <r>     0.7540     7.9249   109.9985 </r>
       <r>     0.8209     7.2135   110.4814 </r>
       <r>     0.8878     6.6347   110.9255 </r>
       <r>     0.9548     6.6885   111.3732 </r>
       <r>     1.0217     7.5729   111.8801 </r>
       <r>     1.0886     9.9341   112.5451 </r>
       <r>     1.1556    12.3899   113.3745 </r>
       <r>     1.2225    12.5029   114.2114 </r>
       <r>     1.2895    10.9040   114.9413 </r>
       <r>     1.3564     9.8597   115.6013 </r>
       <r>     1.4233    10.1338   116.2796 </r>
       <r>     1.4903    10.4430   116.9787 </r>
       <r>     1.5572    10.1609   117.6588 </r>
       <r>     1.6242    10.0418   118.3310 </r>
       <r>     1.6911    10.5376   119.0364 </r>
       <r>     1.7580    11.6565   119.8167 </r>
       <r>     1.8250    12.6119   120.6609 </r>
       <r>     1.8919    13.7106   121.5787 </r>
       <r>     1.9589    14.8924   122.5755 </r>
       <r>     2.0258    15.8486   123.6364 </r>
       <r>     2.0927    16.9402   124.7704 </r>
       <r>     2.1597    17.5859   125.9475 </r>
       <r>     2.2266    17.3312   127.1077 </r>
       <r>     2.2935    15.8624   128.1695 </r>
       <r>     2.3605    13.4463   129.0695 </r>
       <r>     2.4274    12.2176   129.8874 </r>
       <r>     2.4944    12.8273   130.7460 </r>
       <r>     2.5613    13.9629   131.6807 </r>
       <r>     2.6282    13.3472   132.5741 </r>
       <r>     2.6952    10.3406   133.2663 </r>
       <r>     2.7621     8.2718   133.8200 </r>
       <r>     2.8291     8.4223   134.3838 </r>
       <r>     2.8960     8.2263   134.9344 </r>
       <r>     2.9629     6.7231   135.3845 </r>
       <r>     3.0299     4.6058   135.6928 </r>
       <r>     3.0968     2.7145   135.8745 </r>
       <r>     3.1637     1.3473   135.9647 </r>
       <r>     3.2307     0.4448   135.9944 </r>
       <r>     3.2976     0.0766   135.9996 </r>
       <r>     3.3646     0.0061   136.0000 </r>
       <r>     3.4315     0.0002   136.0000 </r>
       <r>     3.4984     0.0000   136.0000 </r>
       <r>     3.5654     0.0000   136.0000 </r>
       <r>     3.6323     0.0000   136.0000 </r>
       <r>     3.6993     0.0000   136.0000 </r>
       <r>     3.7662     0.0000   136.0000 </r>
       <r>     3.8331     0.0000   136.0000 </r>
       <r>     3.9001     0.0000   136.0000 </r>
       <r>     3.9670     0.0000   136.0000 </r>
       <r>     4.0339     0.0000   136.0000 </r>
       <r>     4.1009     0.0000   136.0000 </r>
      </set>
     </set>
    </array>
   </total>
  </dos>
 </calculation>
 <structure name="finalpos" >
  <crystal>
   <varray name="basis" >
    <v>       3.54040000       0.00000000       0.00000000 </v>
    <v>      -1.77020000      10.29434800       0.00000000 </v>
    <v>       0.00000000       0.00000000      27.50142900 </v>
   </varray>
   <i name="volume">   1002.32009712 </i>
   <varray name="rec_basis" >
    <v>       0.28245396       0.04857034       0.00000000 </v>
    <v>       0.00000000       0.09714068       0.00000000 </v>
    <v>       0.00000000       0.00000000       0.03636175 </v>
   </varray>
  </crystal>
  <varray name="positions" >
   <v>       0.11402300       0.22804500       0.23316207 </v>
   <v>       0.91402300       0.92804500       0.51499159 </v>
   <v>       0.45808900       0.91617900       0.20939482 </v>
   <v>       0.25808900       0.61617900       0.49122434 </v>
   <v>       0.31085400       0.62170900       0.08414979 </v>
   <v>       0.31085400       0.62170900       0.36597930 </v>
   <v>       0.99923000       0.99846000       0.08631254 </v>
   <v>       0.99923000       0.99846000       0.36814206 </v>
   <v>       0.65492700       0.30985400       0.06041748 </v>
   <v>       0.65492700       0.30985400       0.34224700 </v>
   <v>       0.76973800       0.53947500       0.20725292 </v>
   <v>       0.56973800       0.23947500       0.48908244 </v>
   <v>       0.93971600       0.87943300       0.15783749 </v>
   <v>       0.73971600       0.57943300       0.43966701 </v>
   <v>       0.20515200       0.41030300       0.18578822 </v>
   <v>       0.00515200       0.11030300       0.46761774 </v>
   <v>       0.20184900       0.40369900       0.09969156 </v>
   <v>       0.20184900       0.40369900       0.38152107 </v>
   <v>       0.56380500       0.12761000       0.10779021 </v>
   <v>       0.56380500       0.12761000       0.38961973 </v>
   <v>       0.56710600       0.13421200       0.19387616 </v>
   <v>       0.36710600       0.83421200       0.47570568 </v>
   <v>       0.82923400       0.65846800       0.13571444 </v>
   <v>       0.62923400       0.35846800       0.41754396 </v>
  </varray>
 </structure>
</modeling>
