  24  24   0   0
  0.4176334E+02  0.3540400E-09  0.1044544E-08  0.2750143E-08  0.5000000E-15
  1.000000000000000E-004
  CAR 
 unknown system                          
      4.17842265    -16.01478376  301     -0.12434411      1.00000000
    -16.015  0.0000E+00  0.0000E+00
    -15.947  0.0000E+00  0.0000E+00
    -15.880  0.0000E+00  0.0000E+00
    -15.813  0.0000E+00  0.0000E+00
    -15.746  0.0000E+00  0.0000E+00
    -15.678  0.0000E+00  0.0000E+00
    -15.611  0.0000E+00  0.0000E+00
    -15.544  0.6688E-13  0.4502E-14
    -15.476  0.6165E-10  0.4154E-11
    -15.409  0.2350E-07  0.1586E-08
    -15.342  0.3728E-05  0.2525E-06
    -15.274  0.2494E-03  0.1704E-04
    -15.207  0.7195E-02  0.5013E-03
    -15.140  0.9252E-01  0.6729E-02
    -15.072  0.5545E+00  0.4406E-01
    -15.005  0.1618E+01  0.1530E+00
    -14.938  0.2374E+01  0.3128E+00
    -14.871  0.1973E+01  0.4456E+00
    -14.803  0.1681E+01  0.5587E+00
    -14.736  0.1750E+01  0.6765E+00
    -14.669  0.1075E+01  0.7489E+00
    -14.601  0.4675E+00  0.7803E+00
    -14.534  0.8586E+00  0.8381E+00
    -14.467  0.1613E+01  0.9467E+00
    -14.399  0.1359E+01  0.1038E+01
    -14.332  0.4951E+00  0.1071E+01
    -14.265  0.1039E+00  0.1078E+01
    -14.197  0.2532E+00  0.1096E+01
    -14.130  0.9784E+00  0.1161E+01
    -14.063  0.1660E+01  0.1273E+01
    -13.995  0.1217E+01  0.1355E+01
    -13.928  0.3844E+00  0.1381E+01
    -13.861  0.5457E-01  0.1385E+01
    -13.794  0.4944E-01  0.1388E+01
    -13.726  0.3583E+00  0.1412E+01
    -13.659  0.1198E+01  0.1493E+01
    -13.592  0.1880E+01  0.1619E+01
    -13.524  0.2059E+01  0.1758E+01
    -13.457  0.3020E+01  0.1961E+01
    -13.390  0.4249E+01  0.2247E+01
    -13.322  0.4576E+01  0.2555E+01
    -13.255  0.5021E+01  0.2893E+01
    -13.188  0.5146E+01  0.3239E+01
    -13.120  0.3683E+01  0.3487E+01
    -13.053  0.2375E+01  0.3647E+01
    -12.986  0.2917E+01  0.3844E+01
    -12.918  0.4288E+01  0.4132E+01
    -12.851  0.4466E+01  0.4433E+01
    -12.784  0.3628E+01  0.4677E+01
    -12.717  0.3161E+01  0.4890E+01
    -12.649  0.3816E+01  0.5147E+01
    -12.582  0.5602E+01  0.5524E+01
    -12.515  0.6717E+01  0.5976E+01
    -12.447  0.6125E+01  0.6388E+01
    -12.380  0.5222E+01  0.6740E+01
    -12.313  0.4555E+01  0.7046E+01
    -12.245  0.4507E+01  0.7350E+01
    -12.178  0.5165E+01  0.7697E+01
    -12.111  0.5670E+01  0.8079E+01
    -12.043  0.5663E+01  0.8460E+01
    -11.976  0.6401E+01  0.8891E+01
    -11.909  0.6941E+01  0.9358E+01
    -11.842  0.6301E+01  0.9782E+01
    -11.774  0.6203E+01  0.1020E+02
    -11.707  0.6373E+01  0.1063E+02
    -11.640  0.6494E+01  0.1107E+02
    -11.572  0.7227E+01  0.1155E+02
    -11.505  0.8793E+01  0.1214E+02
    -11.438  0.1012E+02  0.1283E+02
    -11.370  0.9053E+01  0.1343E+02
    -11.303  0.7562E+01  0.1394E+02
    -11.236  0.8336E+01  0.1450E+02
    -11.168  0.9452E+01  0.1514E+02
    -11.101  0.9656E+01  0.1579E+02
    -11.034  0.9720E+01  0.1645E+02
    -10.966  0.1033E+02  0.1714E+02
    -10.899  0.1061E+02  0.1785E+02
    -10.832  0.1023E+02  0.1854E+02
    -10.765  0.1078E+02  0.1927E+02
    -10.697  0.1007E+02  0.1995E+02
    -10.630  0.8011E+01  0.2049E+02
    -10.563  0.6883E+01  0.2095E+02
    -10.495  0.5599E+01  0.2133E+02
    -10.428  0.4782E+01  0.2165E+02
    -10.361  0.5140E+01  0.2199E+02
    -10.293  0.5051E+01  0.2233E+02
    -10.226  0.4372E+01  0.2263E+02
    -10.159  0.2955E+01  0.2283E+02
    -10.091  0.1383E+01  0.2292E+02
    -10.024  0.1380E+01  0.2301E+02
     -9.957  0.3286E+01  0.2323E+02
     -9.890  0.5068E+01  0.2358E+02
     -9.822  0.4188E+01  0.2386E+02
     -9.755  0.1744E+01  0.2397E+02
     -9.688  0.3462E+00  0.2400E+02
     -9.620  0.3362E-01  0.2400E+02
     -9.553  0.4719E-01  0.2400E+02
     -9.486  0.4305E+00  0.2403E+02
     -9.418  0.1876E+01  0.2416E+02
     -9.351  0.4229E+01  0.2444E+02
     -9.284  0.6023E+01  0.2485E+02
     -9.216  0.6720E+01  0.2530E+02
     -9.149  0.6506E+01  0.2574E+02
     -9.082  0.5704E+01  0.2612E+02
     -9.014  0.4554E+01  0.2643E+02
     -8.947  0.3427E+01  0.2666E+02
     -8.880  0.2604E+01  0.2684E+02
     -8.813  0.2463E+01  0.2700E+02
     -8.745  0.3701E+01  0.2725E+02
     -8.678  0.5337E+01  0.2761E+02
     -8.611  0.5146E+01  0.2796E+02
     -8.543  0.3841E+01  0.2821E+02
     -8.476  0.3551E+01  0.2845E+02
     -8.409  0.4617E+01  0.2876E+02
     -8.341  0.6302E+01  0.2919E+02
     -8.274  0.7466E+01  0.2969E+02
     -8.207  0.7016E+01  0.3016E+02
     -8.139  0.5007E+01  0.3050E+02
     -8.072  0.3493E+01  0.3074E+02
     -8.005  0.2739E+01  0.3092E+02
     -7.938  0.2354E+01  0.3108E+02
     -7.870  0.2859E+01  0.3127E+02
     -7.803  0.3838E+01  0.3153E+02
     -7.736  0.5017E+01  0.3187E+02
     -7.668  0.5551E+01  0.3224E+02
     -7.601  0.5848E+01  0.3263E+02
     -7.534  0.6528E+01  0.3307E+02
     -7.466  0.6685E+01  0.3352E+02
     -7.399  0.6849E+01  0.3398E+02
     -7.332  0.7705E+01  0.3450E+02
     -7.264  0.8681E+01  0.3509E+02
     -7.197  0.8187E+01  0.3564E+02
     -7.130  0.6117E+01  0.3605E+02
     -7.062  0.4878E+01  0.3638E+02
     -6.995  0.5345E+01  0.3674E+02
     -6.928  0.6286E+01  0.3716E+02
     -6.861  0.6876E+01  0.3762E+02
     -6.793  0.7243E+01  0.3811E+02
     -6.726  0.8733E+01  0.3870E+02
     -6.659  0.1179E+02  0.3949E+02
     -6.591  0.1217E+02  0.4031E+02
     -6.524  0.8983E+01  0.4092E+02
     -6.457  0.6424E+01  0.4135E+02
     -6.389  0.4785E+01  0.4167E+02
     -6.322  0.3381E+01  0.4190E+02
     -6.255  0.2801E+01  0.4209E+02
     -6.187  0.2953E+01  0.4229E+02
     -6.120  0.2812E+01  0.4248E+02
     -6.053  0.1991E+01  0.4261E+02
     -5.985  0.1975E+01  0.4274E+02
     -5.918  0.3562E+01  0.4298E+02
     -5.851  0.5420E+01  0.4335E+02
     -5.784  0.6581E+01  0.4379E+02
     -5.716  0.7712E+01  0.4431E+02
     -5.649  0.8716E+01  0.4490E+02
     -5.582  0.8889E+01  0.4549E+02
     -5.514  0.9326E+01  0.4612E+02
     -5.447  0.9538E+01  0.4676E+02
     -5.380  0.8072E+01  0.4731E+02
     -5.312  0.6641E+01  0.4775E+02
     -5.245  0.5933E+01  0.4815E+02
     -5.178  0.5273E+01  0.4851E+02
     -5.110  0.5043E+01  0.4885E+02
     -5.043  0.5464E+01  0.4922E+02
     -4.976  0.6816E+01  0.4967E+02
     -4.909  0.8315E+01  0.5023E+02
     -4.841  0.9472E+01  0.5087E+02
     -4.774  0.1081E+02  0.5160E+02
     -4.707  0.1229E+02  0.5243E+02
     -4.639  0.1229E+02  0.5325E+02
     -4.572  0.1087E+02  0.5399E+02
     -4.505  0.1045E+02  0.5469E+02
     -4.437  0.1097E+02  0.5543E+02
     -4.370  0.1073E+02  0.5615E+02
     -4.303  0.1085E+02  0.5688E+02
     -4.235  0.1213E+02  0.5770E+02
     -4.168  0.1283E+02  0.5856E+02
     -4.101  0.1250E+02  0.5940E+02
     -4.033  0.1322E+02  0.6029E+02
     -3.966  0.1396E+02  0.6123E+02
     -3.899  0.1175E+02  0.6202E+02
     -3.832  0.8730E+01  0.6261E+02
     -3.764  0.9702E+01  0.6326E+02
     -3.697  0.1360E+02  0.6418E+02
     -3.630  0.1427E+02  0.6514E+02
     -3.562  0.1153E+02  0.6591E+02
     -3.495  0.1078E+02  0.6664E+02
     -3.428  0.1335E+02  0.6754E+02
     -3.360  0.1538E+02  0.6857E+02
     -3.293  0.1493E+02  0.6958E+02
     -3.226  0.1445E+02  0.7055E+02
     -3.158  0.1535E+02  0.7159E+02
     -3.091  0.1652E+02  0.7270E+02
     -3.024  0.1681E+02  0.7383E+02
     -2.957  0.1648E+02  0.7494E+02
     -2.889  0.1576E+02  0.7600E+02
     -2.822  0.1383E+02  0.7693E+02
     -2.755  0.1259E+02  0.7778E+02
     -2.687  0.1455E+02  0.7876E+02
     -2.620  0.1691E+02  0.7989E+02
     -2.553  0.1709E+02  0.8104E+02
     -2.485  0.1650E+02  0.8216E+02
     -2.418  0.1582E+02  0.8322E+02
     -2.351  0.1529E+02  0.8425E+02
     -2.283  0.1446E+02  0.8522E+02
     -2.216  0.1308E+02  0.8610E+02
     -2.149  0.1245E+02  0.8694E+02
     -2.081  0.1245E+02  0.8778E+02
     -2.014  0.1316E+02  0.8866E+02
     -1.947  0.1547E+02  0.8971E+02
     -1.880  0.1793E+02  0.9091E+02
     -1.812  0.1808E+02  0.9213E+02
     -1.745  0.1695E+02  0.9327E+02
     -1.678  0.1596E+02  0.9435E+02
     -1.610  0.1457E+02  0.9533E+02
     -1.543  0.1441E+02  0.9630E+02
     -1.476  0.1524E+02  0.9732E+02
     -1.408  0.1488E+02  0.9832E+02
     -1.341  0.1312E+02  0.9921E+02
     -1.274  0.1091E+02  0.9994E+02
     -1.206  0.8790E+01  0.1005E+03
     -1.139  0.7691E+01  0.1011E+03
     -1.072  0.7397E+01  0.1015E+03
     -1.005  0.6954E+01  0.1020E+03
     -0.937  0.6879E+01  0.1025E+03
     -0.870  0.7021E+01  0.1030E+03
     -0.803  0.6906E+01  0.1034E+03
     -0.735  0.7441E+01  0.1039E+03
     -0.668  0.9084E+01  0.1045E+03
     -0.601  0.1035E+02  0.1052E+03
     -0.533  0.1003E+02  0.1059E+03
     -0.466  0.8094E+01  0.1064E+03
     -0.399  0.4938E+01  0.1068E+03
     -0.331  0.2749E+01  0.1070E+03
     -0.264  0.3466E+01  0.1072E+03
     -0.197  0.5590E+01  0.1076E+03
     -0.129  0.5937E+01  0.1080E+03
     -0.062  0.5141E+01  0.1083E+03
      0.005  0.5474E+01  0.1087E+03
      0.072  0.5638E+01  0.1091E+03
      0.140  0.4526E+01  0.1094E+03
      0.207  0.3046E+01  0.1096E+03
      0.274  0.2659E+01  0.1098E+03
      0.342  0.3575E+01  0.1100E+03
      0.409  0.4817E+01  0.1103E+03
      0.476  0.5916E+01  0.1107E+03
      0.544  0.6031E+01  0.1111E+03
      0.611  0.4295E+01  0.1114E+03
      0.678  0.2546E+01  0.1116E+03
      0.746  0.2644E+01  0.1118E+03
      0.813  0.4397E+01  0.1121E+03
      0.880  0.6321E+01  0.1125E+03
      0.948  0.6566E+01  0.1129E+03
      1.015  0.5794E+01  0.1133E+03
      1.082  0.5375E+01  0.1137E+03
      1.149  0.4998E+01  0.1140E+03
      1.217  0.5629E+01  0.1144E+03
      1.284  0.6929E+01  0.1149E+03
      1.351  0.7880E+01  0.1154E+03
      1.419  0.8729E+01  0.1160E+03
      1.486  0.9204E+01  0.1166E+03
      1.553  0.9760E+01  0.1173E+03
      1.621  0.1074E+02  0.1180E+03
      1.688  0.1175E+02  0.1188E+03
      1.755  0.1305E+02  0.1196E+03
      1.823  0.1361E+02  0.1206E+03
      1.890  0.1226E+02  0.1214E+03
      1.957  0.1099E+02  0.1221E+03
      2.024  0.1164E+02  0.1229E+03
      2.092  0.1297E+02  0.1238E+03
      2.159  0.1414E+02  0.1247E+03
      2.226  0.1517E+02  0.1258E+03
      2.294  0.1578E+02  0.1268E+03
      2.361  0.1568E+02  0.1279E+03
      2.428  0.1545E+02  0.1289E+03
      2.496  0.1553E+02  0.1300E+03
      2.563  0.1530E+02  0.1310E+03
      2.630  0.1402E+02  0.1319E+03
      2.698  0.1207E+02  0.1327E+03
      2.765  0.1015E+02  0.1334E+03
      2.832  0.7960E+01  0.1340E+03
      2.900  0.6330E+01  0.1344E+03
      2.967  0.6091E+01  0.1348E+03
      3.034  0.6196E+01  0.1352E+03
      3.101  0.5447E+01  0.1356E+03
      3.169  0.3736E+01  0.1358E+03
      3.236  0.1811E+01  0.1360E+03
      3.303  0.5318E+00  0.1360E+03
      3.371  0.8113E-01  0.1360E+03
      3.438  0.5848E-02  0.1360E+03
      3.505  0.1894E-03  0.1360E+03
      3.573  0.2677E-05  0.1360E+03
      3.640  0.1621E-07  0.1360E+03
      3.707  0.4144E-10  0.1360E+03
      3.775  0.4428E-13  0.1360E+03
      3.842  0.0000E+00  0.1360E+03
      3.909  0.0000E+00  0.1360E+03
      3.976  0.0000E+00  0.1360E+03
      4.044  0.0000E+00  0.1360E+03
      4.111  0.0000E+00  0.1360E+03
      4.178  0.0000E+00  0.1360E+03
