 vasp.5.3.5 31Mar14 (build Oct 29 2014 16:16:03) complex                        
  
 executed on          Linux-UFHPC date 2016.02.09  17:45:16
 running on    8 total cores
 distrk:  each k-point on    8 cores,    1 groups
 distr:  one band on NCORES_PER_BAND=   2 cores,    4 groups


--------------------------------------------------------------------------------------------------------


 INCAR:
 POTCAR:    PAW_PBE P 17Jan2003                   
 POTCAR:   PAW_PBE Si 05Jan2001                   

 ----------------------------------------------------------------------------- 
|                                                                             |
|  ADVICE TO THIS USER RUNNING 'VASP/VAMP'   (HEAR YOUR MASTER'S VOICE ...):  |
|                                                                             |
|      You have switched on vdW-DFT.                                          |
|      This routine was written and supplied by Jiri Klimes.                  |
|      We recommed that you carefully read and cite the following             |
|      publication                                                            |
|      J. Klimes, D.R. Bowler, A. Michelides                                  |
|        J. Phys.: Cond Matt. 22 022201 (2010)                                |
|      J. Klimes, D.R. Bowler, A. Michelides                                  |
|        Phys. Rev. B. 83, 195131 (2011)                                      |
|      and references therein.                                                |
|                                                                             |
 ----------------------------------------------------------------------------- 

 POTCAR:    PAW_PBE P 17Jan2003                   
   VRHFIN =P : s2p3                                                             
   LEXCH  = PE                                                                  
   EATOM  =   176.0430 eV,   12.9388 Ry                                         
                                                                                
   TITEL  = PAW_PBE P 17Jan2003                                                 
   LULTRA =        F    use ultrasoft PP ?                                      
   IUNSCR =        1    unscreen: 0-lin 1-nonlin 2-no                           
   RPACOR =    1.500    partial core radius                                     
   POMASS =   30.974; ZVAL   =    5.000    mass and valenz                      
   RCORE  =    1.900    outmost cutoff radius                                   
   RWIGS  =    2.330; RWIGS  =    1.233    wigner-seitz radius (au A)           
   ENMAX  =  270.000; ENMIN  =  191.280 eV                                      
   ICORE  =        2    local potential                                         
   LCOR   =        T    correct aug charges                                     
   LPAW   =        T    paw PP                                                  
   EAUG   =  342.924                                                            
   DEXC   =    -.002                                                            
   RMAX   =    2.887    core radius for proj-oper                               
   RAUG   =    1.300    factor for augmentation sphere                          
   RDEP   =    1.931    radius for radial grids                                 
   QCUT   =   -4.330; QGAM   =    8.659    optimization parameters              
                                                                                
   Description                                                                  
     l     E      TYP  RCUT    TYP  RCUT                                        
     0   .000     23  1.900                                                     
     0   .000     23  1.900                                                     
     1   .000     23  1.900                                                     
     1   .000     23  1.900                                                     
     2   .000     23  1.900                                                     
  local pseudopotential read in
  partial core-charges read in
  atomic valenz-charges read in
  non local Contribution for L=           0  read in
    real space projection operators read in
  non local Contribution for L=           0  read in
    real space projection operators read in
  non local Contribution for L=           1  read in
    real space projection operators read in
  non local Contribution for L=           1  read in
    real space projection operators read in
    PAW grid and wavefunctions read in
 
   number of l-projection  operators is LMAX  =           4
   number of lm-projection operators is LMMAX =           8
 
 POTCAR:   PAW_PBE Si 05Jan2001                   
   VRHFIN =Si: s2p2                                                             
   LEXCH  = PE                                                                  
   EATOM  =   103.0669 eV,    7.5752 Ry                                         
                                                                                
   TITEL  = PAW_PBE Si 05Jan2001                                                
   LULTRA =        F    use ultrasoft PP ?                                      
   IUNSCR =        1    unscreen: 0-lin 1-nonlin 2-no                           
   RPACOR =    1.500    partial core radius                                     
   POMASS =   28.085; ZVAL   =    4.000    mass and valenz                      
   RCORE  =    1.900    outmost cutoff radius                                   
   RWIGS  =    2.480; RWIGS  =    1.312    wigner-seitz radius (au A)           
   ENMAX  =  245.345; ENMIN  =  184.009 eV                                      
   ICORE  =        2    local potential                                         
   LCOR   =        T    correct aug charges                                     
   LPAW   =        T    paw PP                                                  
   EAUG   =  322.069                                                            
   DEXC   =    -.007                                                            
   RMAX   =    2.944    core radius for proj-oper                               
   RAUG   =    1.300    factor for augmentation sphere                          
   RDEP   =    1.993    radius for radial grids                                 
   QCUT   =   -4.246; QGAM   =    8.493    optimization parameters              
                                                                                
   Description                                                                  
     l     E      TYP  RCUT    TYP  RCUT                                        
     0   .000     23  1.900                                                     
     0   .000     23  1.900                                                     
     1   .000     23  1.900                                                     
     1   .000     23  1.900                                                     
     2   .000      7  1.900                                                     
  local pseudopotential read in
  partial core-charges read in
  atomic valenz-charges read in
  non local Contribution for L=           0  read in
    real space projection operators read in
  non local Contribution for L=           0  read in
    real space projection operators read in
  non local Contribution for L=           1  read in
    real space projection operators read in
  non local Contribution for L=           1  read in
    real space projection operators read in
    PAW grid and wavefunctions read in
 
   number of l-projection  operators is LMAX  =           4
   number of lm-projection operators is LMMAX =           8
 
 Optimization of the real space projectors (new method)

 maximal supplied QI-value         = 19.84
 optimisation between [QCUT,QGAM] = [  8.73, 17.66] = [ 21.34, 87.33] Ry 
 Optimized for a Real-space Cutoff    1.50 Angstroem

   l    n(q)    QCUT    max X(q) W(low)/X(q) W(high)/X(q)  e(spline) 
   0      8     8.731     6.651    0.16E-04    0.15E-04    0.77E-08
   0      8     8.731    90.285    0.16E-03    0.90E-04    0.16E-06
   1      7     8.731     4.328    0.47E-04    0.36E-04    0.45E-07
   1      7     8.731    54.583    0.13E-03    0.39E-03    0.20E-06
 Optimization of the real space projectors (new method)

 maximal supplied QI-value         = 19.84
 optimisation between [QCUT,QGAM] = [  8.73, 17.66] = [ 21.34, 87.33] Ry 
 Optimized for a Real-space Cutoff    1.46 Angstroem

   l    n(q)    QCUT    max X(q) W(low)/X(q) W(high)/X(q)  e(spline) 
   0      8     8.731     8.708    0.16E-04    0.11E-04    0.68E-08
   0      8     8.731   106.241    0.24E-03    0.77E-04    0.13E-06
   1      7     8.731     5.901    0.34E-04    0.38E-04    0.36E-07
   1      7     8.731    73.241    0.12E-03    0.39E-03    0.15E-06

 ----------------------------------------------------------------------------- 
|                                                                             |
|  ADVICE TO THIS USER RUNNING 'VASP/VAMP'   (HEAR YOUR MASTER'S VOICE ...):  |
|                                                                             |
|      You enforced a specific xc-type in the INCAR file,                     |
|      a different type was found on the POTCAR file                          |
|          I HOPE YOU KNOW, WHAT YOU ARE  DOING                               |
|                                                                             |
 ----------------------------------------------------------------------------- 

  PAW_PBE P 17Jan2003                   :
 energy of atom  1       EATOM= -176.0430
 kinetic energy error for atom=    0.0040 (will be added to EATOM!!)
 PAW_PBE Si 05Jan2001                   :
 energy of atom  2       EATOM= -103.0669
 kinetic energy error for atom=    0.0021 (will be added to EATOM!!)
 
 
 POSCAR: Si12                                    
  positions in direct lattice
  No initial velocities read in
 exchange correlation table for  LEXCH =       42
   RHO(1)=    0.500       N(1)  =     2000
   RHO(2)=  100.500       N(2)  =     4000
 


--------------------------------------------------------------------------------------------------------


 ion  position               nearest neighbor table
   1  0.114  0.228  0.233-  15 2.28  21 2.29  21 2.29
   2  0.414  0.728  0.515-  16 2.28  22 2.29  22 2.29
   3  0.458  0.916  0.209-  21 2.28  13 2.30  13 2.30
   4  0.758  0.416  0.491-  22 2.28  14 2.30  14 2.30
   5  0.311  0.622  0.084-  17 2.28  23 2.30  23 2.30
   6  0.311  0.622  0.366-  18 2.28
   7  0.999  0.998  0.086-  19 2.29  19 2.29  13 2.32
   8  0.999  0.998  0.368-  24 2.14  20 2.29  20 2.29
   9  0.655  0.310  0.060-  19 2.28  17 2.29  17 2.29
  10  0.655  0.310  0.342-  20 2.28  18 2.29  18 2.29  24 3.04
  11  0.770  0.539  0.207-  15 2.29  15 2.29  23 2.32
  12  0.070  0.039  0.489-  16 2.29  16 2.29  24 2.32
  13  0.940  0.879  0.158-   3 2.30   3 2.30   7 2.32  23 2.35
  14  0.240  0.379  0.440-  18 1.63   4 2.30   4 2.30  24 2.35
  15  0.205  0.410  0.186-   1 2.28  11 2.29  11 2.29  17 2.37
  16  0.505  0.910  0.468-   2 2.28  12 2.29  12 2.29  20 3.10
  17  0.202  0.404  0.100-   5 2.28   9 2.29   9 2.29  15 2.37
  18  0.202  0.404  0.382-  14 1.63   6 2.28  10 2.29  10 2.29  24 2.72
  19  0.564  0.128  0.108-   9 2.28   7 2.29   7 2.29  21 2.37
  20  0.564  0.128  0.390-  24 1.80  24 2.12  10 2.28   8 2.29   8 2.29  16 3.10
  21  0.567  0.134  0.194-   3 2.28   1 2.29   1 2.29  19 2.37
  22  0.867  0.634  0.476-   4 2.28   2 2.29   2 2.29
  23  0.829  0.658  0.136-   5 2.30   5 2.30  11 2.32  13 2.35
  24  0.129  0.158  0.418-  20 1.80  20 2.12   8 2.14  12 2.32  14 2.35  18 2.72  10 3.04
 
  LATTYP: Found a base centered orthorhombic cell.
 ALAT       =     3.5404000000
 B/A-ratio  =     5.8153587165
 C/A-ratio  =     7.7678875268
  
  Lattice vectors:
  
 A1 = (   1.7702000000,  10.2943480000,   0.0000000000)
 A2 = (   1.7702000000, -10.2943480000,   0.0000000000)
 A3 = (   0.0000000000,   0.0000000000, -27.5014290000)


Analysis of symmetry for initial positions (statically):
=====================================================================
 Subroutine PRICEL returns:
 Original cell was already a primitive cell.
 

 Routine SETGRP: Setting up the symmetry group for a 
 base centered orthorhombic supercell.


 Subroutine GETGRP returns: Found  1 space group operations
 (whereof  1 operations were pure point group operations)
 out of a pool of  8 trial point group operations.


The static configuration has the point symmetry C_1 .


Analysis of symmetry for dynamics (positions and initial velocities):
=====================================================================
 Subroutine PRICEL returns:
 Original cell was already a primitive cell.
 

 Routine SETGRP: Setting up the symmetry group for a 
 base centered orthorhombic supercell.


 Subroutine GETGRP returns: Found  1 space group operations
 (whereof  1 operations were pure point group operations)
 out of a pool of  8 trial point group operations.


The dynamic configuration has the point symmetry C_1 .
 
 
 KPOINTS: pymatgen generated KPOINTS with grid den

Automatic generation of k-mesh.
Space group operators:
 irot       det(A)        alpha          n_x          n_y          n_z        tau_x        tau_y        tau_z
    1     1.000000     0.000000     1.000000     0.000000     0.000000     0.000000     0.000000     0.000000
 
 Subroutine IBZKPT returns following result:
 ===========================================
 
 Found     54 irreducible k-points:
 
 Following reciprocal coordinates:
            Coordinates               Weight
  0.000000  0.000000  0.000000      1.000000
  0.076923 -0.000000  0.000000      2.000000
  0.153846 -0.000000  0.000000      2.000000
  0.230769 -0.000000  0.000000      2.000000
  0.307692 -0.000000  0.000000      2.000000
  0.384615 -0.000000  0.000000      2.000000
  0.461538 -0.000000  0.000000      2.000000
  0.000000  0.250000  0.000000      2.000000
  0.076923  0.250000  0.000000      2.000000
  0.153846  0.250000  0.000000      2.000000
  0.230769  0.250000  0.000000      2.000000
  0.307692  0.250000  0.000000      2.000000
  0.384615  0.250000  0.000000      2.000000
  0.461538  0.250000  0.000000      2.000000
 -0.461538  0.250000  0.000000      2.000000
 -0.384615  0.250000  0.000000      2.000000
 -0.307692  0.250000  0.000000      2.000000
 -0.230769  0.250000  0.000000      2.000000
 -0.153846  0.250000  0.000000      2.000000
 -0.076923  0.250000  0.000000      2.000000
  0.000000  0.500000  0.000000      1.000000
  0.076923  0.500000  0.000000      2.000000
  0.153846  0.500000  0.000000      2.000000
  0.230769  0.500000  0.000000      2.000000
  0.307692  0.500000  0.000000      2.000000
  0.384615  0.500000  0.000000      2.000000
  0.461538  0.500000  0.000000      2.000000
  0.000000  0.000000  0.500000      1.000000
  0.076923 -0.000000  0.500000      2.000000
  0.153846 -0.000000  0.500000      2.000000
  0.230769 -0.000000  0.500000      2.000000
  0.307692 -0.000000  0.500000      2.000000
  0.384615 -0.000000  0.500000      2.000000
  0.461538 -0.000000  0.500000      2.000000
  0.000000  0.250000  0.500000      2.000000
  0.076923  0.250000  0.500000      2.000000
  0.153846  0.250000  0.500000      2.000000
  0.230769  0.250000  0.500000      2.000000
  0.307692  0.250000  0.500000      2.000000
  0.384615  0.250000  0.500000      2.000000
  0.461538  0.250000  0.500000      2.000000
 -0.461538  0.250000  0.500000      2.000000
 -0.384615  0.250000  0.500000      2.000000
 -0.307692  0.250000  0.500000      2.000000
 -0.230769  0.250000  0.500000      2.000000
 -0.153846  0.250000  0.500000      2.000000
 -0.076923  0.250000  0.500000      2.000000
  0.000000  0.500000  0.500000      1.000000
  0.076923  0.500000  0.500000      2.000000
  0.153846  0.500000  0.500000      2.000000
  0.230769  0.500000  0.500000      2.000000
  0.307692  0.500000  0.500000      2.000000
  0.384615  0.500000  0.500000      2.000000
  0.461538  0.500000  0.500000      2.000000
 
 Following cartesian coordinates:
            Coordinates               Weight
  0.000000  0.000000  0.000000      1.000000
  0.021727  0.003736  0.000000      2.000000
  0.043454  0.007472  0.000000      2.000000
  0.065182  0.011209  0.000000      2.000000
  0.086909  0.014945  0.000000      2.000000
  0.108636  0.018681  0.000000      2.000000
  0.130363  0.022417  0.000000      2.000000
  0.000000  0.024285  0.000000      2.000000
  0.021727  0.028021  0.000000      2.000000
  0.043454  0.031758  0.000000      2.000000
  0.065182  0.035494  0.000000      2.000000
  0.086909  0.039230  0.000000      2.000000
  0.108636  0.042966  0.000000      2.000000
  0.130363  0.046702  0.000000      2.000000
 -0.130363  0.001868  0.000000      2.000000
 -0.108636  0.005604  0.000000      2.000000
 -0.086909  0.009340  0.000000      2.000000
 -0.065182  0.013077  0.000000      2.000000
 -0.043454  0.016813  0.000000      2.000000
 -0.021727  0.020549  0.000000      2.000000
  0.000000  0.048570  0.000000      1.000000
  0.021727  0.052307  0.000000      2.000000
  0.043454  0.056043  0.000000      2.000000
  0.065182  0.059779  0.000000      2.000000
  0.086909  0.063515  0.000000      2.000000
  0.108636  0.067251  0.000000      2.000000
  0.130363  0.070987  0.000000      2.000000
  0.000000  0.000000  0.018181      1.000000
  0.021727  0.003736  0.018181      2.000000
  0.043454  0.007472  0.018181      2.000000
  0.065182  0.011209  0.018181      2.000000
  0.086909  0.014945  0.018181      2.000000
  0.108636  0.018681  0.018181      2.000000
  0.130363  0.022417  0.018181      2.000000
  0.000000  0.024285  0.018181      2.000000
  0.021727  0.028021  0.018181      2.000000
  0.043454  0.031758  0.018181      2.000000
  0.065182  0.035494  0.018181      2.000000
  0.086909  0.039230  0.018181      2.000000
  0.108636  0.042966  0.018181      2.000000
  0.130363  0.046702  0.018181      2.000000
 -0.130363  0.001868  0.018181      2.000000
 -0.108636  0.005604  0.018181      2.000000
 -0.086909  0.009340  0.018181      2.000000
 -0.065182  0.013077  0.018181      2.000000
 -0.043454  0.016813  0.018181      2.000000
 -0.021727  0.020549  0.018181      2.000000
  0.000000  0.048570  0.018181      1.000000
  0.021727  0.052307  0.018181      2.000000
  0.043454  0.056043  0.018181      2.000000
  0.065182  0.059779  0.018181      2.000000
  0.086909  0.063515  0.018181      2.000000
  0.108636  0.067251  0.018181      2.000000
  0.130363  0.070987  0.018181      2.000000
 


--------------------------------------------------------------------------------------------------------




 Dimension of arrays:
   k-points           NKPTS =     54   k-points in BZ     NKDIM =     54   number of bands    NBANDS=     68
   number of dos      NEDOS =    301   number of ions     NIONS =     24
   non local maximal  LDIM  =      4   non local SUM 2l+1 LMDIM =      8
   total plane-waves  NPLWV = 192000
   max r-space proj   IRMAX =   2772   max aug-charges    IRDMAX=   6603
   dimension x,y,z NGX =    20 NGY =   60 NGZ =  160
   dimension x,y,z NGXF=    40 NGYF=  120 NGZF=  320
   support grid    NGXF=    40 NGYF=  120 NGZF=  320
   ions per type =              12  12
 NGX,Y,Z   is equivalent  to a cutoff of   9.39,  9.55,  9.67 a.u.
 NGXF,Y,Z  is equivalent  to a cutoff of  18.78, 19.10, 19.34 a.u.


 I would recommend the setting:
   dimension x,y,z NGX =    20 NGY =   59 NGZ =  155
 SYSTEM =  unknown system                          
 POSCAR =  Si12                                    

 Startparameter for this run:
   NWRITE =      2    write-flag & timer
   PREC   = accura    normal or accurate (medium, high low for compatibility)
   ISTART =      0    job   : 0-new  1-cont  2-samecut
   ICHARG =      2    charge: 1-file 2-atom 10-const
   ISPIN  =      1    spin polarized calculation?
   LNONCOLLINEAR =      F non collinear calculations
   LSORBIT =      F    spin-orbit coupling
   INIWAV =      1    electr: 0-lowe 1-rand  2-diag
   LASPH  =      F    aspherical Exc in radial PAW
   METAGGA=      F    non-selfconsistent MetaGGA calc.

 Electronic Relaxation 1
   ENCUT  =  300.0 eV  22.05 Ry    4.70 a.u.   5.00 14.75 38.84*2*pi/ulx,y,z
   ENINI  =  300.0     initial cutoff
   ENAUG  =  342.9 eV  augmentation charge cutoff
   NELM   =     60;   NELMIN=  2; NELMDL= -5     # of ELM steps 
   EDIFF  = 0.1E-05   stopping-criterion for ELM
   LREAL  =      T    real-space projection
   NLSPLINE    = F    spline interpolate recip. space projectors
   LCOMPAT=      F    compatible to vasp.4.4
   GGA_COMPAT  = T    GGA compatible to vasp.4.4-vasp.4.6
   LMAXPAW     = -100 max onsite density
   LMAXMIX     =    2 max onsite mixed and CHGCAR
   VOSKOWN=      0    Vosko Wilk Nusair interpolation
   ROPT   =   -0.00025  -0.00025
 Ionic relaxation
   EDIFFG = 0.1E-04   stopping-criterion for IOM
   NSW    =      0    number of steps for IOM
   NBLOCK =      1;   KBLOCK =      1    inner block; outer block 
   IBRION =     -1    ionic relax: 0-MD 1-quasi-New 2-CG
   NFREE  =      1    steps in history (QN), initial steepest desc. (CG)
   ISIF   =      3    stress and relaxation
   IWAVPR =     10    prediction:  0-non 1-charg 2-wave 3-comb
   ISYM   =      2    0-nonsym 1-usesym 2-fastsym
   LCORR  =      T    Harris-Foulkes like correction to forces

   POTIM  = 0.5000    time-step for ionic-motion
   TEIN   =    0.0    initial temperature
   TEBEG  =    0.0;   TEEND  =   0.0 temperature during run
   SMASS  =  -3.00    Nose mass-parameter (am)
   estimated Nose-frequenzy (Omega)   =  0.10E-29 period in steps =****** mass=  -0.286E-27a.u.
   SCALEE = 1.0000    scale energy and forces
   NPACO  =    256;   APACO  = 16.0  distance and # of slots for P.C.
   PSTRESS=    0.0 pullay stress

  Mass of Ions in am
   POMASS =  30.97 28.09
  Ionic Valenz
   ZVAL   =   5.00  4.00
  Atomic Wigner-Seitz radii
   RWIGS  =  -1.00 -1.00
  virtual crystal weights 
   VCA    =   1.00  1.00
   NELECT =     108.0000    total number of electrons
   NUPDOWN=      -1.0000    fix difference up-down

 DOS related values:
   EMIN   =  10.00;   EMAX   =-10.00  energy-range for DOS
   EFERMI =   0.00
   ISMEAR =     0;   SIGMA  =   0.10  broadening in eV -4-tet -1-fermi 0-gaus

 Electronic relaxation 2 (details)
   IALGO  =     38    algorithm
   LDIAG  =      T    sub-space diagonalisation (order eigenvalues)
   LSUBROT=      F    optimize rotation matrix (better conditioning)
   TURBO    =      0    0=normal 1=particle mesh
   IRESTART =      0    0=no restart 2=restart with 2 vectors
   NREBOOT  =      0    no. of reboots
   NMIN     =      0    reboot dimension
   EREF     =   0.00    reference energy to select bands
   IMIX   =      4    mixing-type and parameters
     AMIX     =   0.40;   BMIX     =  1.00
     AMIX_MAG =   1.60;   BMIX_MAG =  1.00
     AMIN     =   0.10
     WC   =   100.;   INIMIX=   1;  MIXPRE=   1;  MAXMIX= -45

 Intra band minimization:
   WEIMIN = 0.0000     energy-eigenvalue tresh-hold
   EBREAK =  0.37E-08  absolut break condition
   DEPER  =   0.30     relativ break condition  

   TIME   =   0.40     timestep for ELM

  volume/ion in A,a.u.               =      41.76       281.83
  Fermi-wavevector in a.u.,A,eV,Ry     =   0.779018  1.472130  8.256946  0.606868
  Thomas-Fermi vector in A             =   1.882034
 
 Write flags
   LWAVE  =      F    write WAVECAR
   LCHARG =      F    write CHGCAR
   LVTOT  =      F    write LOCPOT, total local potential
   LVHAR  =      F    write LOCPOT, Hartree potential only
   LELF   =      F    write electronic localiz. function (ELF)
   LORBIT =      0    0 simple, 1 ext, 2 COOP (PROOUT)


 Dipole corrections
   LMONO  =      F    monopole corrections only (constant potential shift)
   LDIPOL =      F    correct potential (dipole corrections)
   IDIPOL =      0    1-x, 2-y, 3-z, 4-all directions 
   EPSILON=  1.0000000 bulk dielectric constant

 Exchange correlation treatment:
   GGA     =    BO    GGA type
   LEXCH   =    42    internal setting for exchange type
   VOSKOWN=      0    Vosko Wilk Nusair interpolation
   LHFCALC =     F    Hartree Fock is set to
   LHFONE  =     F    Hartree Fock one center treatment
   AEXX    =    0.0000 exact exchange contribution

 vdW DFT:
   LUSE_VDW   =     T    switch on vdW DFT
   Zab_VDW    =-.8491    correlation parameter
   PARAM1     =0.1833
   PARAM2     =0.2200
   PARAM3     =0.0000

 Linear response parameters
   LEPSILON=     F    determine dielectric tensor
   LRPA    =     F    only Hartree local field effects (RPA)
   LNABLA  =     F    use nabla operator in PAW spheres
   LVEL    =     F    velocity operator in full k-point grid
   LINTERFAST=   F  fast interpolation
   KINTER  =     0    interpolate to denser k-point grid
   CSHIFT  =0.1000    complex shift for real part using Kramers Kronig
   OMEGAMAX=  -1.0    maximum frequency
   DEG_THRESHOLD= 0.2000000E-02 threshold for treating states as degnerate
   RTIME   =    0.100 relaxation time in fs

 Orbital magnetization related:
   ORBITALMAG=     F  switch on orbital magnetization
   LCHIMAG   =     F  perturbation theory with respect to B field
   DQ        =  0.001000  dq finite difference perturbation B field



--------------------------------------------------------------------------------------------------------


 Static calculation
 charge density and potential will be updated during run
 non-spin polarized calculation
 Variant of blocked Davidson
 Davidson routine will perform the subspace rotation
 perform sub-space diagonalisation
    after iterative eigenvector-optimisation
 modified Broyden-mixing scheme, WC =      100.0
 initial mixing is a Kerker type mixing with AMIX =  0.4000 and BMIX =      1.0000
 Hartree-type preconditioning will be used
 using additional bands           14
 real space projection scheme for non local part
 use partial core corrections
 calculate Harris-corrections to forces 
   (improved forces if not selfconsistent)
 use gradient corrections 
 use of overlap-Matrix (Vanderbilt PP)
 Gauss-broadening in eV      SIGMA  =   0.10


--------------------------------------------------------------------------------------------------------


  energy-cutoff  :      300.00
  volume of cell :     1002.32
      direct lattice vectors                 reciprocal lattice vectors
     3.540400000  0.000000000  0.000000000     0.282453960  0.048570342  0.000000000
    -1.770200000 10.294348000  0.000000000     0.000000000  0.097140683  0.000000000
     0.000000000  0.000000000 27.501429000     0.000000000  0.000000000  0.036361747

  length of vectors
     3.540400000 10.445439617 27.501429000     0.286599577  0.097140683  0.036361747


 
 k-points in units of 2pi/SCALE and weight: pymatgen generated KPOINTS with grid den
   0.00000000  0.00000000  0.00000000       0.010
   0.02172723  0.00373618  0.00000000       0.019
   0.04345446  0.00747236  0.00000000       0.019
   0.06518168  0.01120854  0.00000000       0.019
   0.08690891  0.01494472  0.00000000       0.019
   0.10863614  0.01868090  0.00000000       0.019
   0.13036337  0.02241708  0.00000000       0.019
   0.00000000  0.02428517  0.00000000       0.019
   0.02172723  0.02802135  0.00000000       0.019
   0.04345446  0.03175753  0.00000000       0.019
   0.06518168  0.03549371  0.00000000       0.019
   0.08690891  0.03922989  0.00000000       0.019
   0.10863614  0.04296607  0.00000000       0.019
   0.13036337  0.04670225  0.00000000       0.019
  -0.13036337  0.00186809  0.00000000       0.019
  -0.10863614  0.00560427  0.00000000       0.019
  -0.08690891  0.00934045  0.00000000       0.019
  -0.06518168  0.01307663  0.00000000       0.019
  -0.04345446  0.01681281  0.00000000       0.019
  -0.02172723  0.02054899  0.00000000       0.019
   0.00000000  0.04857034  0.00000000       0.010
   0.02172723  0.05230652  0.00000000       0.019
   0.04345446  0.05604270  0.00000000       0.019
   0.06518168  0.05977888  0.00000000       0.019
   0.08690891  0.06351506  0.00000000       0.019
   0.10863614  0.06725124  0.00000000       0.019
   0.13036337  0.07098742  0.00000000       0.019
   0.00000000  0.00000000  0.01818087       0.010
   0.02172723  0.00373618  0.01818087       0.019
   0.04345446  0.00747236  0.01818087       0.019
   0.06518168  0.01120854  0.01818087       0.019
   0.08690891  0.01494472  0.01818087       0.019
   0.10863614  0.01868090  0.01818087       0.019
   0.13036337  0.02241708  0.01818087       0.019
   0.00000000  0.02428517  0.01818087       0.019
   0.02172723  0.02802135  0.01818087       0.019
   0.04345446  0.03175753  0.01818087       0.019
   0.06518168  0.03549371  0.01818087       0.019
   0.08690891  0.03922989  0.01818087       0.019
   0.10863614  0.04296607  0.01818087       0.019
   0.13036337  0.04670225  0.01818087       0.019
  -0.13036337  0.00186809  0.01818087       0.019
  -0.10863614  0.00560427  0.01818087       0.019
  -0.08690891  0.00934045  0.01818087       0.019
  -0.06518168  0.01307663  0.01818087       0.019
  -0.04345446  0.01681281  0.01818087       0.019
  -0.02172723  0.02054899  0.01818087       0.019
   0.00000000  0.04857034  0.01818087       0.010
   0.02172723  0.05230652  0.01818087       0.019
   0.04345446  0.05604270  0.01818087       0.019
   0.06518168  0.05977888  0.01818087       0.019
   0.08690891  0.06351506  0.01818087       0.019
   0.10863614  0.06725124  0.01818087       0.019
   0.13036337  0.07098742  0.01818087       0.019
 
 k-points in reciprocal lattice and weights: pymatgen generated KPOINTS with grid den
   0.00000000  0.00000000  0.00000000       0.010
   0.07692308 -0.00000000  0.00000000       0.019
   0.15384615 -0.00000000  0.00000000       0.019
   0.23076923 -0.00000000  0.00000000       0.019
   0.30769231 -0.00000000  0.00000000       0.019
   0.38461538 -0.00000000  0.00000000       0.019
   0.46153846 -0.00000000  0.00000000       0.019
   0.00000000  0.25000000  0.00000000       0.019
   0.07692308  0.25000000  0.00000000       0.019
   0.15384615  0.25000000  0.00000000       0.019
   0.23076923  0.25000000  0.00000000       0.019
   0.30769231  0.25000000  0.00000000       0.019
   0.38461538  0.25000000  0.00000000       0.019
   0.46153846  0.25000000  0.00000000       0.019
  -0.46153846  0.25000000  0.00000000       0.019
  -0.38461538  0.25000000  0.00000000       0.019
  -0.30769231  0.25000000  0.00000000       0.019
  -0.23076923  0.25000000  0.00000000       0.019
  -0.15384615  0.25000000  0.00000000       0.019
  -0.07692308  0.25000000  0.00000000       0.019
   0.00000000  0.50000000  0.00000000       0.010
   0.07692308  0.50000000  0.00000000       0.019
   0.15384615  0.50000000  0.00000000       0.019
   0.23076923  0.50000000  0.00000000       0.019
   0.30769231  0.50000000  0.00000000       0.019
   0.38461538  0.50000000  0.00000000       0.019
   0.46153846  0.50000000  0.00000000       0.019
   0.00000000  0.00000000  0.50000000       0.010
   0.07692308 -0.00000000  0.50000000       0.019
   0.15384615 -0.00000000  0.50000000       0.019
   0.23076923 -0.00000000  0.50000000       0.019
   0.30769231 -0.00000000  0.50000000       0.019
   0.38461538 -0.00000000  0.50000000       0.019
   0.46153846 -0.00000000  0.50000000       0.019
   0.00000000  0.25000000  0.50000000       0.019
   0.07692308  0.25000000  0.50000000       0.019
   0.15384615  0.25000000  0.50000000       0.019
   0.23076923  0.25000000  0.50000000       0.019
   0.30769231  0.25000000  0.50000000       0.019
   0.38461538  0.25000000  0.50000000       0.019
   0.46153846  0.25000000  0.50000000       0.019
  -0.46153846  0.25000000  0.50000000       0.019
  -0.38461538  0.25000000  0.50000000       0.019
  -0.30769231  0.25000000  0.50000000       0.019
  -0.23076923  0.25000000  0.50000000       0.019
  -0.15384615  0.25000000  0.50000000       0.019
  -0.07692308  0.25000000  0.50000000       0.019
   0.00000000  0.50000000  0.50000000       0.010
   0.07692308  0.50000000  0.50000000       0.019
   0.15384615  0.50000000  0.50000000       0.019
   0.23076923  0.50000000  0.50000000       0.019
   0.30769231  0.50000000  0.50000000       0.019
   0.38461538  0.50000000  0.50000000       0.019
   0.46153846  0.50000000  0.50000000       0.019
 
 position of ions in fractional coordinates (direct lattice) 
   0.11402300  0.22804500  0.23316207
   0.41402300  0.72804500  0.51499159
   0.45808900  0.91617900  0.20939482
   0.75808900  0.41617900  0.49122434
   0.31085400  0.62170900  0.08414979
   0.31085400  0.62170900  0.36597930
   0.99923000  0.99846000  0.08631254
   0.99923000  0.99846000  0.36814206
   0.65492700  0.30985400  0.06041748
   0.65492700  0.30985400  0.34224700
   0.76973800  0.53947500  0.20725292
   0.06973800  0.03947500  0.48908244
   0.93971600  0.87943300  0.15783749
   0.23971600  0.37943300  0.43966701
   0.20515200  0.41030300  0.18578822
   0.50515200  0.91030300  0.46761774
   0.20184900  0.40369900  0.09969156
   0.20184900  0.40369900  0.38152107
   0.56380500  0.12761000  0.10779021
   0.56380500  0.12761000  0.38961973
   0.56710600  0.13421200  0.19387616
   0.86710600  0.63421200  0.47570568
   0.82923400  0.65846800  0.13571444
   0.12923400  0.15846800  0.41754396
 
 position of ions in cartesian coordinates  (Angst):
   0.00000177  2.34757459  6.41229012
   0.17702177  7.49474859 14.16300462
  -0.00000177  9.43146546  5.75865686
   1.94721823  4.28429146 13.50937136
  -0.00000177  6.40008880  2.31423934
  -0.00000177  6.40008880 10.06495384
   1.77020000 10.27849470  2.37371832
   1.77020000 10.27849470 10.12443282
   1.77020000  3.18974491  1.66156717
   1.77020000  3.18974491  9.41228167
   1.77020177  5.55354339  5.69975143
   0.17702177  0.40636939 13.45046593
   1.77019823  9.05318934  4.34075665
   0.17701823  3.90601534 12.09147115
   0.00000177  4.22380187  5.10944151
   0.17702177  9.37097587 12.86015601
  -0.00000177  4.15581799  2.74166024
  -0.00000177  4.15581799 10.49237474
   1.77020000  1.31366175  2.96438477
   1.77020000  1.31366175 10.71509927
   1.77020000  1.38162503  5.33187152
   1.94722000  6.52879903 13.08258602
   1.77020000  6.77849874  3.73234107
   0.17702000  1.63132474 11.48305557
 


--------------------------------------------------------------------------------------------------------


 k-point  1 :   0.0000 0.0000 0.0000  plane waves:   11717
 k-point  2 :   0.0769-0.0000 0.0000  plane waves:   11762
 k-point  3 :   0.1538-0.0000 0.0000  plane waves:   11805
 k-point  4 :   0.2308-0.0000 0.0000  plane waves:   11824
 k-point  5 :   0.3077-0.0000 0.0000  plane waves:   11875
 k-point  6 :   0.3846-0.0000 0.0000  plane waves:   11864
 k-point  7 :   0.4615-0.0000 0.0000  plane waves:   11883
 k-point  8 :   0.0000 0.2500 0.0000  plane waves:   11683
 k-point  9 :   0.0769 0.2500 0.0000  plane waves:   11756
 k-point 10 :   0.1538 0.2500 0.0000  plane waves:   11807
 k-point 11 :   0.2308 0.2500 0.0000  plane waves:   11853
 k-point 12 :   0.3077 0.2500 0.0000  plane waves:   11866
 k-point 13 :   0.3846 0.2500 0.0000  plane waves:   11889
 k-point 14 :   0.4615 0.2500 0.0000  plane waves:   11885
 k-point 15 :  -0.4615 0.2500 0.0000  plane waves:   11886
 k-point 16 :  -0.3846 0.2500 0.0000  plane waves:   11867
 k-point 17 :  -0.3077 0.2500 0.0000  plane waves:   11849
 k-point 18 :  -0.2308 0.2500 0.0000  plane waves:   11827
 k-point 19 :  -0.1538 0.2500 0.0000  plane waves:   11801
 k-point 20 :  -0.0769 0.2500 0.0000  plane waves:   11757
 k-point 21 :   0.0000 0.5000 0.0000  plane waves:   11710
 k-point 22 :   0.0769 0.5000 0.0000  plane waves:   11762
 k-point 23 :   0.1538 0.5000 0.0000  plane waves:   11782
 k-point 24 :   0.2308 0.5000 0.0000  plane waves:   11841
 k-point 25 :   0.3077 0.5000 0.0000  plane waves:   11876
 k-point 26 :   0.3846 0.5000 0.0000  plane waves:   11889
 k-point 27 :   0.4615 0.5000 0.0000  plane waves:   11881
 k-point 28 :   0.0000 0.0000 0.5000  plane waves:   11698
 k-point 29 :   0.0769-0.0000 0.5000  plane waves:   11752
 k-point 30 :   0.1538-0.0000 0.5000  plane waves:   11800
 k-point 31 :   0.2308-0.0000 0.5000  plane waves:   11834
 k-point 32 :   0.3077-0.0000 0.5000  plane waves:   11850
 k-point 33 :   0.3846-0.0000 0.5000  plane waves:   11888
 k-point 34 :   0.4615-0.0000 0.5000  plane waves:   11896
 k-point 35 :   0.0000 0.2500 0.5000  plane waves:   11714
 k-point 36 :   0.0769 0.2500 0.5000  plane waves:   11754
 k-point 37 :   0.1538 0.2500 0.5000  plane waves:   11802
 k-point 38 :   0.2308 0.2500 0.5000  plane waves:   11840
 k-point 39 :   0.3077 0.2500 0.5000  plane waves:   11858
 k-point 40 :   0.3846 0.2500 0.5000  plane waves:   11896
 k-point 41 :   0.4615 0.2500 0.5000  plane waves:   11886
 k-point 42 :  -0.4615 0.2500 0.5000  plane waves:   11852
 k-point 43 :  -0.3846 0.2500 0.5000  plane waves:   11838
 k-point 44 :  -0.3077 0.2500 0.5000  plane waves:   11842
 k-point 45 :  -0.2308 0.2500 0.5000  plane waves:   11840
 k-point 46 :  -0.1538 0.2500 0.5000  plane waves:   11804
 k-point 47 :  -0.0769 0.2500 0.5000  plane waves:   11748
 k-point 48 :   0.0000 0.5000 0.5000  plane waves:   11724
 k-point 49 :   0.0769 0.5000 0.5000  plane waves:   11748
 k-point 50 :   0.1538 0.5000 0.5000  plane waves:   11814
 k-point 51 :   0.2308 0.5000 0.5000  plane waves:   11832
 k-point 52 :   0.3077 0.5000 0.5000  plane waves:   11868
 k-point 53 :   0.3846 0.5000 0.5000  plane waves:   11892
 k-point 54 :   0.4615 0.5000 0.5000  plane waves:   11878

 maximum and minimum number of plane-waves per node :      5964     5832

 maximum number of plane-waves:     11896
 maximum index in each direction: 
   IXMAX=    5   IYMAX=   14   IZMAX=   38
   IXMIN=   -5   IYMIN=  -15   IZMIN=  -39

 WARNING: aliasing errors must be expected set NGX to  22 to avoid them
 NGY is ok and might be reduce to  60
 NGZ is ok and might be reduce to 156
 aliasing errors are usually negligible using standard VASP settings
 and one can safely disregard these warnings

 real space projection operators:
  total allocation   :       3793.25 KBytes
  max/ min on nodes  :       1899.38       1893.88


 parallel 3D FFT for wavefunctions:
    minimum data exchange during FFTs selected (reduces bandwidth)
 parallel 3D FFT for charge:
    minimum data exchange during FFTs selected (reduces bandwidth)


 total amount of memory used by VASP on root node   146493. kBytes
========================================================================

   base      :      30000. kBytes
   nonlr-proj:       3452. kBytes
   fftplans  :       9347. kBytes
   grid      :      14649. kBytes
   one-center:         36. kBytes
   wavefun   :      89009. kBytes
 
     INWAV:  cpu time    0.00: real time    0.00
 Broyden mixing: mesh for mixing (old mesh)
   NGX =  9   NGY = 29   NGZ = 77
  (NGX  = 40   NGY  =120   NGZ  =320)
  gives a total of  20097 points

 initial charge density was supplied:
 charge density of overlapping atoms calculated
 number of electron     108.0000000 magnetization 
 keeping initial charge density in first step


--------------------------------------------------------------------------------------------------------


 Maximum index for non-local projection operator         1333
 Maximum index for augmentation-charges          822 (set IRDMAX)


--------------------------------------------------------------------------------------------------------


 First call to EWALD:  gamma=   0.177
 Maximum number of real-space cells 7x 3x 1
 Maximum number of reciprocal cells 1x 3x 7

 FEWALD executed in parallel
    FEWALD:  cpu time    0.00: real time    0.00


----------------------------------------- Iteration    1(   1)  ---------------------------------------


vdW kernel read from vdw_kernel.bindat
  0.0000  0.2424  0.5071  0.7962  1.1119  1.4567  1.8333  2.2446  2.6937  3.1842
  3.7199  4.3049  4.9438  5.6415  6.4036  7.2358  8.1446  9.1372 10.2212 11.4050
 12.6979 14.1099 15.6519 17.3360 19.1751 21.1837 23.3773 25.7729 28.3892 31.2465
 34.3669 37.7748 41.4965 45.5611 50.0000
 
    POTLOK:  cpu time   16.21: real time   16.22
    SETDIJ:  cpu time    0.01: real time    0.01
     EDDAV:  cpu time   66.83: real time   66.86
       DOS:  cpu time    0.01: real time    0.01
    --------------------------------------------
      LOOP:  cpu time   83.07: real time   83.11

 eigenvalue-minimisations  :  7376
 total energy-change (2. order) : 0.5070852E+03  (-0.2876921E+04)
 number of electron     108.0000000 magnetization 
 augmentation part      108.0000000 magnetization 

 Free energy of the ion-electron system (eV)
  ---------------------------------------------------
  alpha Z        PSCENC =        36.80884744
  Ewald energy   TEWEN  =     12038.37508336
  -Hartree energ DENC   =    -15061.04606959
  -exchange      EXHF   =         0.00000000
  -V(xc)+E(xc)   XCENC  =       -86.91762752
  PAW double counting   =      1056.43050070     -732.41190547
  entropy T*S    EENTRO =        -0.04659514
  eigenvalues    EBANDS =       -98.14831389
  atomic energy  EATOM  =      3354.04126044
  ---------------------------------------------------
  free energy    TOTEN  =       507.08518033 eV

  energy without entropy =      507.13177547  energy(sigma->0) =      507.10847790


--------------------------------------------------------------------------------------------------------




----------------------------------------- Iteration    1(   2)  ---------------------------------------


     EDDAV:  cpu time   83.41: real time   83.44
       DOS:  cpu time    0.01: real time    0.01
    --------------------------------------------
      LOOP:  cpu time   83.42: real time   83.45

 eigenvalue-minimisations  :  9788
 total energy-change (2. order) :-0.5665325E+03  (-0.5511671E+03)
 number of electron     108.0000000 magnetization 
 augmentation part      108.0000000 magnetization 

 Free energy of the ion-electron system (eV)
  ---------------------------------------------------
  alpha Z        PSCENC =        36.80884744
  Ewald energy   TEWEN  =     12038.37508336
  -Hartree energ DENC   =    -15061.04606959
  -exchange      EXHF   =         0.00000000
  -V(xc)+E(xc)   XCENC  =       -86.91762752
  PAW double counting   =      1056.43050070     -732.41190547
  entropy T*S    EENTRO =        -0.01899501
  eigenvalues    EBANDS =      -664.70837210
  atomic energy  EATOM  =      3354.04126044
  ---------------------------------------------------
  free energy    TOTEN  =       -59.44727775 eV

  energy without entropy =      -59.42828274  energy(sigma->0) =      -59.43778024


--------------------------------------------------------------------------------------------------------




----------------------------------------- Iteration    1(   3)  ---------------------------------------


     EDDAV:  cpu time   76.18: real time   76.20
       DOS:  cpu time    0.01: real time    0.01
    --------------------------------------------
      LOOP:  cpu time   76.19: real time   76.21

 eigenvalue-minimisations  :  8736
 total energy-change (2. order) :-0.5701334E+02  (-0.5610483E+02)
 number of electron     108.0000000 magnetization 
 augmentation part      108.0000000 magnetization 

 Free energy of the ion-electron system (eV)
  ---------------------------------------------------
  alpha Z        PSCENC =        36.80884744
  Ewald energy   TEWEN  =     12038.37508336
  -Hartree energ DENC   =    -15061.04606959
  -exchange      EXHF   =         0.00000000
  -V(xc)+E(xc)   XCENC  =       -86.91762752
  PAW double counting   =      1056.43050070     -732.41190547
  entropy T*S    EENTRO =        -0.01479048
  eigenvalues    EBANDS =      -721.72591342
  atomic energy  EATOM  =      3354.04126044
  ---------------------------------------------------
  free energy    TOTEN  =      -116.46061454 eV

  energy without entropy =     -116.44582406  energy(sigma->0) =     -116.45321930


--------------------------------------------------------------------------------------------------------




----------------------------------------- Iteration    1(   4)  ---------------------------------------


     EDDAV:  cpu time   92.45: real time   92.48
       DOS:  cpu time    0.01: real time    0.01
    --------------------------------------------
      LOOP:  cpu time   92.46: real time   92.49

 eigenvalue-minimisations  : 11120
 total energy-change (2. order) :-0.2612167E+01  (-0.2593844E+01)
 number of electron     108.0000000 magnetization 
 augmentation part      108.0000000 magnetization 

 Free energy of the ion-electron system (eV)
  ---------------------------------------------------
  alpha Z        PSCENC =        36.80884744
  Ewald energy   TEWEN  =     12038.37508336
  -Hartree energ DENC   =    -15061.04606959
  -exchange      EXHF   =         0.00000000
  -V(xc)+E(xc)   XCENC  =       -86.91762752
  PAW double counting   =      1056.43050070     -732.41190547
  entropy T*S    EENTRO =        -0.01569895
  eigenvalues    EBANDS =      -724.33717178
  atomic energy  EATOM  =      3354.04126044
  ---------------------------------------------------
  free energy    TOTEN  =      -119.07278136 eV

  energy without entropy =     -119.05708241  energy(sigma->0) =     -119.06493189


--------------------------------------------------------------------------------------------------------




----------------------------------------- Iteration    1(   5)  ---------------------------------------


     EDDAV:  cpu time   85.20: real time   85.22
       DOS:  cpu time    0.01: real time    0.01
    CHARGE:  cpu time    4.30: real time    4.31
    MIXING:  cpu time    0.01: real time    0.01
    --------------------------------------------
      LOOP:  cpu time   89.53: real time   89.56

 eigenvalue-minimisations  : 10056
 total energy-change (2. order) :-0.5827862E-01  (-0.5820290E-01)
 number of electron     107.9999997 magnetization 
 augmentation part       -9.6679979 magnetization 

 Broyden mixing:
  rms(total) = 0.11745E+01    rms(broyden)= 0.11742E+01
  rms(prec ) = 0.12946E+01
  weight for this iteration     100.00

 Free energy of the ion-electron system (eV)
  ---------------------------------------------------
  alpha Z        PSCENC =        36.80884744
  Ewald energy   TEWEN  =     12038.37508336
  -Hartree energ DENC   =    -15061.04606959
  -exchange      EXHF   =         0.00000000
  -V(xc)+E(xc)   XCENC  =       -86.91762752
  PAW double counting   =      1056.43050070     -732.41190547
  entropy T*S    EENTRO =        -0.01568277
  eigenvalues    EBANDS =      -724.39546657
  atomic energy  EATOM  =      3354.04126044
  ---------------------------------------------------
  free energy    TOTEN  =      -119.13105998 eV

  energy without entropy =     -119.11537721  energy(sigma->0) =     -119.12321860


--------------------------------------------------------------------------------------------------------




----------------------------------------- Iteration    1(   6)  ---------------------------------------


    POTLOK:  cpu time   14.68: real time   14.68
    SETDIJ:  cpu time    0.01: real time    0.01
     EDDAV:  cpu time   76.44: real time   76.47
       DOS:  cpu time    0.01: real time    0.01
    CHARGE:  cpu time    4.23: real time    4.23
    MIXING:  cpu time    0.01: real time    0.01
    --------------------------------------------
      LOOP:  cpu time   95.39: real time   95.42

 eigenvalue-minimisations  :  8776
 total energy-change (2. order) : 0.3843420E+01  (-0.1809417E+01)
 number of electron     107.9999996 magnetization 
 augmentation part       -9.5083696 magnetization 

 Broyden mixing:
  rms(total) = 0.62431E+00    rms(broyden)= 0.62428E+00
  rms(prec ) = 0.67987E+00
  weight for this iteration     100.00

 eigenvalues of (default mixing * dielectric matrix)
  average eigenvalue GAMMA=   1.4290
  1.4290

 Free energy of the ion-electron system (eV)
  ---------------------------------------------------
  alpha Z        PSCENC =        36.80884744
  Ewald energy   TEWEN  =     12038.37508336
  -Hartree energ DENC   =    -15120.03371895
  -exchange      EXHF   =         0.00000000
  -V(xc)+E(xc)   XCENC  =       -83.79754696
  PAW double counting   =      1123.42047498     -801.45954630
  entropy T*S    EENTRO =        -0.01664244
  eigenvalues    EBANDS =      -662.62585119
  atomic energy  EATOM  =      3354.04126044
  ---------------------------------------------------
  free energy    TOTEN  =      -115.28763961 eV

  energy without entropy =     -115.27099717  energy(sigma->0) =     -115.27931839


--------------------------------------------------------------------------------------------------------




----------------------------------------- Iteration    1(   7)  ---------------------------------------


    POTLOK:  cpu time   14.67: real time   14.68
    SETDIJ:  cpu time    0.01: real time    0.01
     EDDAV:  cpu time   77.41: real time   77.44
       DOS:  cpu time    0.01: real time    0.01
    CHARGE:  cpu time    4.41: real time    4.41
    MIXING:  cpu time    0.01: real time    0.01
    --------------------------------------------
      LOOP:  cpu time   96.53: real time   96.57

 eigenvalue-minimisations  :  8936
 total energy-change (2. order) : 0.2829971E+00  (-0.8215651E+00)
 number of electron     107.9999997 magnetization 
 augmentation part       -9.4652884 magnetization 

 Broyden mixing:
  rms(total) = 0.33247E+00    rms(broyden)= 0.33245E+00
  rms(prec ) = 0.36625E+00
  weight for this iteration     100.00

 eigenvalues of (default mixing * dielectric matrix)
  average eigenvalue GAMMA=   1.3213
  0.7267  1.9159

 Free energy of the ion-electron system (eV)
  ---------------------------------------------------
  alpha Z        PSCENC =        36.80884744
  Ewald energy   TEWEN  =     12038.37508336
  -Hartree energ DENC   =    -15126.49356279
  -exchange      EXHF   =         0.00000000
  -V(xc)+E(xc)   XCENC  =       -81.69686886
  PAW double counting   =      1161.13807154     -840.29964952
  entropy T*S    EENTRO =        -0.02560531
  eigenvalues    EBANDS =      -656.85221885
  atomic energy  EATOM  =      3354.04126044
  ---------------------------------------------------
  free energy    TOTEN  =      -115.00464254 eV

  energy without entropy =     -114.97903724  energy(sigma->0) =     -114.99183989


--------------------------------------------------------------------------------------------------------




----------------------------------------- Iteration    1(   8)  ---------------------------------------


    POTLOK:  cpu time   14.68: real time   14.69
    SETDIJ:  cpu time    0.01: real time    0.01
     EDDAV:  cpu time   76.62: real time   76.64
       DOS:  cpu time    0.01: real time    0.01
    CHARGE:  cpu time    4.46: real time    4.46
    MIXING:  cpu time    0.01: real time    0.01
    --------------------------------------------
      LOOP:  cpu time   95.79: real time   95.82

 eigenvalue-minimisations  :  8808
 total energy-change (2. order) : 0.1400382E-01  (-0.2155579E+00)
 number of electron     107.9999996 magnetization 
 augmentation part       -9.4105882 magnetization 

 Broyden mixing:
  rms(total) = 0.13853E+00    rms(broyden)= 0.13852E+00
  rms(prec ) = 0.14794E+00
  weight for this iteration     100.00

 eigenvalues of (default mixing * dielectric matrix)
  average eigenvalue GAMMA=   1.2918
  2.1018  1.0579  0.7158

 Free energy of the ion-electron system (eV)
  ---------------------------------------------------
  alpha Z        PSCENC =        36.80884744
  Ewald energy   TEWEN  =     12038.37508336
  -Hartree energ DENC   =    -15149.76981535
  -exchange      EXHF   =         0.00000000
  -V(xc)+E(xc)   XCENC  =       -79.98169914
  PAW double counting   =      1186.94524069     -866.86479511
  entropy T*S    EENTRO =        -0.02695391
  eigenvalues    EBANDS =      -634.51780715
  atomic energy  EATOM  =      3354.04126044
  ---------------------------------------------------
  free energy    TOTEN  =      -114.99063872 eV

  energy without entropy =     -114.96368481  energy(sigma->0) =     -114.97716176


--------------------------------------------------------------------------------------------------------




----------------------------------------- Iteration    1(   9)  ---------------------------------------


    POTLOK:  cpu time   14.65: real time   14.66
    SETDIJ:  cpu time    0.01: real time    0.01
     EDDAV:  cpu time   77.98: real time   78.01
       DOS:  cpu time    0.01: real time    0.01
    CHARGE:  cpu time    4.37: real time    4.37
    MIXING:  cpu time    0.01: real time    0.01
    --------------------------------------------
      LOOP:  cpu time   97.04: real time   97.07

 eigenvalue-minimisations  :  9016
 total energy-change (2. order) :-0.2326020E-01  (-0.3421370E-01)
 number of electron     107.9999996 magnetization 
 augmentation part       -9.4030394 magnetization 

 Broyden mixing:
  rms(total) = 0.75373E-01    rms(broyden)= 0.75364E-01
  rms(prec ) = 0.87034E-01
  weight for this iteration     100.00

 eigenvalues of (default mixing * dielectric matrix)
  average eigenvalue GAMMA=   1.2689
  2.2743  1.3581  0.7216  0.7216

 Free energy of the ion-electron system (eV)
  ---------------------------------------------------
  alpha Z        PSCENC =        36.80884744
  Ewald energy   TEWEN  =     12038.37508336
  -Hartree energ DENC   =    -15153.27343761
  -exchange      EXHF   =         0.00000000
  -V(xc)+E(xc)   XCENC  =       -79.45886686
  PAW double counting   =      1189.88664129     -869.91608621
  entropy T*S    EENTRO =        -0.02491243
  eigenvalues    EBANDS =      -631.45242834
  atomic energy  EATOM  =      3354.04126044
  ---------------------------------------------------
  free energy    TOTEN  =      -115.01389892 eV

  energy without entropy =     -114.98898649  energy(sigma->0) =     -115.00144271


--------------------------------------------------------------------------------------------------------




----------------------------------------- Iteration    1(  10)  ---------------------------------------


    POTLOK:  cpu time   14.67: real time   14.67
    SETDIJ:  cpu time    0.01: real time    0.01
     EDDAV:  cpu time   79.73: real time   79.76
       DOS:  cpu time    0.01: real time    0.01
    CHARGE:  cpu time    4.37: real time    4.37
    MIXING:  cpu time    0.01: real time    0.01
    --------------------------------------------
      LOOP:  cpu time   98.80: real time   98.84

 eigenvalue-minimisations  :  9256
 total energy-change (2. order) : 0.1377610E-01  (-0.1263828E-01)
 number of electron     107.9999996 magnetization 
 augmentation part       -9.4064530 magnetization 

 Broyden mixing:
  rms(total) = 0.45493E-01    rms(broyden)= 0.45487E-01
  rms(prec ) = 0.54177E-01
  weight for this iteration     100.00

 eigenvalues of (default mixing * dielectric matrix)
  average eigenvalue GAMMA=   1.2652
  2.5001  1.6306  0.9387  0.7338  0.5228

 Free energy of the ion-electron system (eV)
  ---------------------------------------------------
  alpha Z        PSCENC =        36.80884744
  Ewald energy   TEWEN  =     12038.37508336
  -Hartree energ DENC   =    -15157.11404725
  -exchange      EXHF   =         0.00000000
  -V(xc)+E(xc)   XCENC  =       -79.26924541
  PAW double counting   =      1189.07873180     -869.09335629
  entropy T*S    EENTRO =        -0.02827528
  eigenvalues    EBANDS =      -627.79912164
  atomic energy  EATOM  =      3354.04126044
  ---------------------------------------------------
  free energy    TOTEN  =      -115.00012282 eV

  energy without entropy =     -114.97184754  energy(sigma->0) =     -114.98598518


--------------------------------------------------------------------------------------------------------




----------------------------------------- Iteration    1(  11)  ---------------------------------------


    POTLOK:  cpu time   14.67: real time   14.68
    SETDIJ:  cpu time    0.01: real time    0.01
     EDDAV:  cpu time   77.51: real time   77.54
       DOS:  cpu time    0.01: real time    0.01
    CHARGE:  cpu time    4.35: real time    4.35
    MIXING:  cpu time    0.01: real time    0.01
    --------------------------------------------
      LOOP:  cpu time   96.58: real time   96.61

 eigenvalue-minimisations  :  8928
 total energy-change (2. order) : 0.1177983E-01  (-0.4380798E-02)
 number of electron     107.9999996 magnetization 
 augmentation part       -9.4089450 magnetization 

 Broyden mixing:
  rms(total) = 0.13383E-01    rms(broyden)= 0.13379E-01
  rms(prec ) = 0.16694E-01
  weight for this iteration     100.00

 eigenvalues of (default mixing * dielectric matrix)
  average eigenvalue GAMMA=   1.2431
  2.6220  1.6376  1.0519  0.9065  0.7639  0.4765

 Free energy of the ion-electron system (eV)
  ---------------------------------------------------
  alpha Z        PSCENC =        36.80884744
  Ewald energy   TEWEN  =     12038.37508336
  -Hartree energ DENC   =    -15157.92039351
  -exchange      EXHF   =         0.00000000
  -V(xc)+E(xc)   XCENC  =       -79.15470640
  PAW double counting   =      1187.23156125     -867.20490037
  entropy T*S    EENTRO =        -0.02651709
  eigenvalues    EBANDS =      -627.13857810
  atomic energy  EATOM  =      3354.04126044
  ---------------------------------------------------
  free energy    TOTEN  =      -114.98834299 eV

  energy without entropy =     -114.96182589  energy(sigma->0) =     -114.97508444


--------------------------------------------------------------------------------------------------------




----------------------------------------- Iteration    1(  12)  ---------------------------------------


    POTLOK:  cpu time   14.68: real time   14.68
    SETDIJ:  cpu time    0.01: real time    0.01
     EDDAV:  cpu time   75.16: real time   75.19
       DOS:  cpu time    0.01: real time    0.01
    CHARGE:  cpu time    4.38: real time    4.38
    MIXING:  cpu time    0.01: real time    0.01
    --------------------------------------------
      LOOP:  cpu time   94.26: real time   94.29

 eigenvalue-minimisations  :  8600
 total energy-change (2. order) : 0.5516170E-02  (-0.8270676E-03)
 number of electron     107.9999996 magnetization 
 augmentation part       -9.4103241 magnetization 

 Broyden mixing:
  rms(total) = 0.67760E-02    rms(broyden)= 0.67752E-02
  rms(prec ) = 0.81280E-02
  weight for this iteration     100.00

 eigenvalues of (default mixing * dielectric matrix)
  average eigenvalue GAMMA=   1.2682
  2.6324  1.5433  1.5433  1.0135  0.9031  0.7670  0.4748

 Free energy of the ion-electron system (eV)
  ---------------------------------------------------
  alpha Z        PSCENC =        36.80884744
  Ewald energy   TEWEN  =     12038.37508336
  -Hartree energ DENC   =    -15159.40562031
  -exchange      EXHF   =         0.00000000
  -V(xc)+E(xc)   XCENC  =       -79.11511452
  PAW double counting   =      1186.52178591     -866.47669986
  entropy T*S    EENTRO =        -0.02685130
  eigenvalues    EBANDS =      -625.70551800
  atomic energy  EATOM  =      3354.04126044
  ---------------------------------------------------
  free energy    TOTEN  =      -114.98282682 eV

  energy without entropy =     -114.95597552  energy(sigma->0) =     -114.96940117


--------------------------------------------------------------------------------------------------------




----------------------------------------- Iteration    1(  13)  ---------------------------------------


    POTLOK:  cpu time   14.68: real time   14.69
    SETDIJ:  cpu time    0.01: real time    0.01
     EDDAV:  cpu time   81.29: real time   81.31
       DOS:  cpu time    0.01: real time    0.01
    CHARGE:  cpu time    4.43: real time    4.43
    MIXING:  cpu time    0.01: real time    0.01
    --------------------------------------------
      LOOP:  cpu time  100.44: real time  100.47

 eigenvalue-minimisations  :  9496
 total energy-change (2. order) : 0.4664451E-02  (-0.1238580E-03)
 number of electron     107.9999996 magnetization 
 augmentation part       -9.4099766 magnetization 

 Broyden mixing:
  rms(total) = 0.35322E-02    rms(broyden)= 0.35318E-02
  rms(prec ) = 0.48089E-02
  weight for this iteration     100.00

 eigenvalues of (default mixing * dielectric matrix)
  average eigenvalue GAMMA=   1.3054
  2.6957  1.7922  1.7922  1.0327  1.0327  0.8606  0.7615  0.4753

 Free energy of the ion-electron system (eV)
  ---------------------------------------------------
  alpha Z        PSCENC =        36.80884744
  Ewald energy   TEWEN  =     12038.37508336
  -Hartree energ DENC   =    -15160.42794917
  -exchange      EXHF   =         0.00000000
  -V(xc)+E(xc)   XCENC  =       -79.10554245
  PAW double counting   =      1185.95344166     -865.89366640
  entropy T*S    EENTRO =        -0.02689043
  eigenvalues    EBANDS =      -624.70274684
  atomic energy  EATOM  =      3354.04126044
  ---------------------------------------------------
  free energy    TOTEN  =      -114.97816237 eV

  energy without entropy =     -114.95127194  energy(sigma->0) =     -114.96471715


--------------------------------------------------------------------------------------------------------




----------------------------------------- Iteration    1(  14)  ---------------------------------------


    POTLOK:  cpu time   14.66: real time   14.66
    SETDIJ:  cpu time    0.01: real time    0.01
     EDDAV:  cpu time   79.23: real time   79.25
       DOS:  cpu time    0.01: real time    0.01
    CHARGE:  cpu time    4.40: real time    4.40
    MIXING:  cpu time    0.01: real time    0.02
    --------------------------------------------
      LOOP:  cpu time   98.32: real time   98.35

 eigenvalue-minimisations  :  9184
 total energy-change (2. order) : 0.3128404E-02  (-0.3257391E-04)
 number of electron     107.9999996 magnetization 
 augmentation part       -9.4099469 magnetization 

 Broyden mixing:
  rms(total) = 0.17268E-02    rms(broyden)= 0.17267E-02
  rms(prec ) = 0.28059E-02
  weight for this iteration     100.00

 eigenvalues of (default mixing * dielectric matrix)
  average eigenvalue GAMMA=   1.3360
  2.7845  2.3046  1.4359  1.4359  0.9913  0.9913  0.8368  0.7681  0.4753

 Free energy of the ion-electron system (eV)
  ---------------------------------------------------
  alpha Z        PSCENC =        36.80884744
  Ewald energy   TEWEN  =     12038.37508336
  -Hartree energ DENC   =    -15161.22441696
  -exchange      EXHF   =         0.00000000
  -V(xc)+E(xc)   XCENC  =       -79.10079881
  PAW double counting   =      1185.50364453     -865.43269104
  entropy T*S    EENTRO =        -0.02684246
  eigenvalues    EBANDS =      -623.91912047
  atomic energy  EATOM  =      3354.04126044
  ---------------------------------------------------
  free energy    TOTEN  =      -114.97503396 eV

  energy without entropy =     -114.94819151  energy(sigma->0) =     -114.96161273


--------------------------------------------------------------------------------------------------------




----------------------------------------- Iteration    1(  15)  ---------------------------------------


    POTLOK:  cpu time   14.60: real time   14.60
    SETDIJ:  cpu time    0.01: real time    0.01
     EDDAV:  cpu time   79.67: real time   79.70
       DOS:  cpu time    0.01: real time    0.01
    CHARGE:  cpu time    4.37: real time    4.37
    MIXING:  cpu time    0.01: real time    0.02
    --------------------------------------------
      LOOP:  cpu time   98.68: real time   98.72

 eigenvalue-minimisations  :  9264
 total energy-change (2. order) : 0.1832977E-02  (-0.1122912E-04)
 number of electron     107.9999996 magnetization 
 augmentation part       -9.4100097 magnetization 

 Broyden mixing:
  rms(total) = 0.10690E-02    rms(broyden)= 0.10689E-02
  rms(prec ) = 0.18554E-02
  weight for this iteration     100.00

 eigenvalues of (default mixing * dielectric matrix)
  average eigenvalue GAMMA=   1.3754
  2.9266  2.4831  1.5651  1.5651  0.4754  1.0197  1.0197  1.0631  0.8780  0.7581

 Free energy of the ion-electron system (eV)
  ---------------------------------------------------
  alpha Z        PSCENC =        36.80884744
  Ewald energy   TEWEN  =     12038.37508336
  -Hartree energ DENC   =    -15162.00926847
  -exchange      EXHF   =         0.00000000
  -V(xc)+E(xc)   XCENC  =       -79.09820266
  PAW double counting   =      1185.22513563     -865.14718699
  entropy T*S    EENTRO =        -0.02684899
  eigenvalues    EBANDS =      -623.14202075
  atomic energy  EATOM  =      3354.04126044
  ---------------------------------------------------
  free energy    TOTEN  =      -114.97320098 eV

  energy without entropy =     -114.94635199  energy(sigma->0) =     -114.95977649


--------------------------------------------------------------------------------------------------------




----------------------------------------- Iteration    1(  16)  ---------------------------------------


    POTLOK:  cpu time   14.59: real time   14.60
    SETDIJ:  cpu time    0.01: real time    0.01
     EDDAV:  cpu time   75.04: real time   75.06
       DOS:  cpu time    0.01: real time    0.01
    CHARGE:  cpu time    4.42: real time    4.42
    MIXING:  cpu time    0.01: real time    0.02
    --------------------------------------------
      LOOP:  cpu time   94.09: real time   94.12

 eigenvalue-minimisations  :  8560
 total energy-change (2. order) : 0.3913461E-03  (-0.3794757E-05)
 number of electron     107.9999996 magnetization 
 augmentation part       -9.4099080 magnetization 

 Broyden mixing:
  rms(total) = 0.64488E-03    rms(broyden)= 0.64485E-03
  rms(prec ) = 0.12016E-02
  weight for this iteration     100.00

 eigenvalues of (default mixing * dielectric matrix)
  average eigenvalue GAMMA=   1.4803
  3.5768  2.6767  1.9966  1.4981  1.4981  0.4754  0.9884  0.9884  0.9138  0.9138
  0.7568

 Free energy of the ion-electron system (eV)
  ---------------------------------------------------
  alpha Z        PSCENC =        36.80884744
  Ewald energy   TEWEN  =     12038.37508336
  -Hartree energ DENC   =    -15162.65389638
  -exchange      EXHF   =         0.00000000
  -V(xc)+E(xc)   XCENC  =       -79.09453581
  PAW double counting   =      1185.16195816     -865.08252777
  entropy T*S    EENTRO =        -0.02684518
  eigenvalues    EBANDS =      -622.50215392
  atomic energy  EATOM  =      3354.04126044
  ---------------------------------------------------
  free energy    TOTEN  =      -114.97280964 eV

  energy without entropy =     -114.94596446  energy(sigma->0) =     -114.95938705


--------------------------------------------------------------------------------------------------------




----------------------------------------- Iteration    1(  17)  ---------------------------------------


    POTLOK:  cpu time   14.58: real time   14.59
    SETDIJ:  cpu time    0.01: real time    0.01
     EDDAV:  cpu time   71.76: real time   71.78
       DOS:  cpu time    0.01: real time    0.01
    CHARGE:  cpu time    4.38: real time    4.38
    MIXING:  cpu time    0.02: real time    0.02
    --------------------------------------------
      LOOP:  cpu time   90.76: real time   90.79

 eigenvalue-minimisations  :  8088
 total energy-change (2. order) :-0.4048064E-03  (-0.1055457E-04)
 number of electron     107.9999996 magnetization 
 augmentation part       -9.4097138 magnetization 

 Broyden mixing:
  rms(total) = 0.38840E-03    rms(broyden)= 0.38838E-03
  rms(prec ) = 0.65125E-03
  weight for this iteration     100.00

 eigenvalues of (default mixing * dielectric matrix)
  average eigenvalue GAMMA=   1.5683
  4.5217  2.7514  2.2655  1.4392  1.4392  1.3393  0.4754  1.0020  1.0020  0.7567
  0.9134  0.9134

 Free energy of the ion-electron system (eV)
  ---------------------------------------------------
  alpha Z        PSCENC =        36.80884744
  Ewald energy   TEWEN  =     12038.37508336
  -Hartree energ DENC   =    -15163.40074034
  -exchange      EXHF   =         0.00000000
  -V(xc)+E(xc)   XCENC  =       -79.09024314
  PAW double counting   =      1185.17187287     -865.09285265
  entropy T*S    EENTRO =        -0.02684769
  eigenvalues    EBANDS =      -621.75959475
  atomic energy  EATOM  =      3354.04126044
  ---------------------------------------------------
  free energy    TOTEN  =      -114.97321444 eV

  energy without entropy =     -114.94636676  energy(sigma->0) =     -114.95979060


--------------------------------------------------------------------------------------------------------




----------------------------------------- Iteration    1(  18)  ---------------------------------------


    POTLOK:  cpu time   14.69: real time   14.70
    SETDIJ:  cpu time    0.01: real time    0.01
     EDDAV:  cpu time   72.58: real time   72.60
       DOS:  cpu time    0.01: real time    0.01
    CHARGE:  cpu time    4.27: real time    4.27
    MIXING:  cpu time    0.02: real time    0.02
    --------------------------------------------
      LOOP:  cpu time   91.58: real time   91.61

 eigenvalue-minimisations  :  8200
 total energy-change (2. order) :-0.4534571E-03  (-0.1350071E-04)
 number of electron     107.9999996 magnetization 
 augmentation part       -9.4096679 magnetization 

 Broyden mixing:
  rms(total) = 0.21642E-03    rms(broyden)= 0.21639E-03
  rms(prec ) = 0.37200E-03
  weight for this iteration     100.00

 eigenvalues of (default mixing * dielectric matrix)
  average eigenvalue GAMMA=   1.6777
  5.6608  2.7815  2.4024  1.8939  1.4589  1.4589  0.4754  1.0136  1.0136  0.7576
  1.0041  1.0041  0.8848

 Free energy of the ion-electron system (eV)
  ---------------------------------------------------
  alpha Z        PSCENC =        36.80884744
  Ewald energy   TEWEN  =     12038.37508336
  -Hartree energ DENC   =    -15163.78398445
  -exchange      EXHF   =         0.00000000
  -V(xc)+E(xc)   XCENC  =       -79.08844798
  PAW double counting   =      1185.19783019     -865.11941814
  entropy T*S    EENTRO =        -0.02684170
  eigenvalues    EBANDS =      -621.37799707
  atomic energy  EATOM  =      3354.04126044
  ---------------------------------------------------
  free energy    TOTEN  =      -114.97366790 eV

  energy without entropy =     -114.94682620  energy(sigma->0) =     -114.96024705


--------------------------------------------------------------------------------------------------------




----------------------------------------- Iteration    1(  19)  ---------------------------------------


    POTLOK:  cpu time   14.67: real time   14.68
    SETDIJ:  cpu time    0.01: real time    0.01
     EDDAV:  cpu time   67.41: real time   67.43
       DOS:  cpu time    0.01: real time    0.01
    CHARGE:  cpu time    4.35: real time    4.35
    MIXING:  cpu time    0.02: real time    0.02
    --------------------------------------------
      LOOP:  cpu time   86.47: real time   86.50

 eigenvalue-minimisations  :  7408
 total energy-change (2. order) :-0.8560661E-04  (-0.4167212E-05)
 number of electron     107.9999996 magnetization 
 augmentation part       -9.4096784 magnetization 

 Broyden mixing:
  rms(total) = 0.12496E-03    rms(broyden)= 0.12495E-03
  rms(prec ) = 0.23227E-03
  weight for this iteration     100.00

 eigenvalues of (default mixing * dielectric matrix)
  average eigenvalue GAMMA=   1.7259
  6.1830  2.9769  2.5953  1.9859  1.5923  1.3672  1.3672  0.4754  1.0208  1.0208
  0.7578  0.8788  0.9708  0.9708

 Free energy of the ion-electron system (eV)
  ---------------------------------------------------
  alpha Z        PSCENC =        36.80884744
  Ewald energy   TEWEN  =     12038.37508336
  -Hartree energ DENC   =    -15163.97374294
  -exchange      EXHF   =         0.00000000
  -V(xc)+E(xc)   XCENC  =       -79.08759702
  PAW double counting   =      1185.20317481     -865.12475767
  entropy T*S    EENTRO =        -0.02684336
  eigenvalues    EBANDS =      -621.18917858
  atomic energy  EATOM  =      3354.04126044
  ---------------------------------------------------
  free energy    TOTEN  =      -114.97375351 eV

  energy without entropy =     -114.94691015  energy(sigma->0) =     -114.96033183


--------------------------------------------------------------------------------------------------------




----------------------------------------- Iteration    1(  20)  ---------------------------------------


    POTLOK:  cpu time   14.69: real time   14.70
    SETDIJ:  cpu time    0.01: real time    0.01
     EDDAV:  cpu time   61.78: real time   61.80
       DOS:  cpu time    0.01: real time    0.01
    CHARGE:  cpu time    4.24: real time    4.24
    MIXING:  cpu time    0.02: real time    0.02
    --------------------------------------------
      LOOP:  cpu time   80.76: real time   80.79

 eigenvalue-minimisations  :  6592
 total energy-change (2. order) :-0.6361226E-04  (-0.1358991E-05)
 number of electron     107.9999996 magnetization 
 augmentation part       -9.4096722 magnetization 

 Broyden mixing:
  rms(total) = 0.85457E-04    rms(broyden)= 0.85454E-04
  rms(prec ) = 0.15367E-03
  weight for this iteration     100.00

 eigenvalues of (default mixing * dielectric matrix)
  average eigenvalue GAMMA=   1.7551
  6.5999  3.0930  2.6492  2.1496  1.5954  1.5954  0.4754  1.2891  1.2891  1.0154
  1.0154  0.7580  0.8710  0.9652  0.9652

 Free energy of the ion-electron system (eV)
  ---------------------------------------------------
  alpha Z        PSCENC =        36.80884744
  Ewald energy   TEWEN  =     12038.37508336
  -Hartree energ DENC   =    -15164.07100887
  -exchange      EXHF   =         0.00000000
  -V(xc)+E(xc)   XCENC  =       -79.08721870
  PAW double counting   =      1185.21018130     -865.13189396
  entropy T*S    EENTRO =        -0.02684353
  eigenvalues    EBANDS =      -621.09222461
  atomic energy  EATOM  =      3354.04126044
  ---------------------------------------------------
  free energy    TOTEN  =      -114.97381712 eV

  energy without entropy =     -114.94697359  energy(sigma->0) =     -114.96039536


--------------------------------------------------------------------------------------------------------




----------------------------------------- Iteration    1(  21)  ---------------------------------------


    POTLOK:  cpu time   14.69: real time   14.69
    SETDIJ:  cpu time    0.01: real time    0.01
     EDDAV:  cpu time   63.38: real time   63.40
       DOS:  cpu time    0.01: real time    0.01
    CHARGE:  cpu time    4.36: real time    4.36
    MIXING:  cpu time    0.02: real time    0.02
    --------------------------------------------
      LOOP:  cpu time   82.48: real time   82.50

 eigenvalue-minimisations  :  6840
 total energy-change (2. order) :-0.2508623E-06  (-0.1297681E-05)
 number of electron     107.9999996 magnetization 
 augmentation part       -9.4096756 magnetization 

 Broyden mixing:
  rms(total) = 0.58038E-04    rms(broyden)= 0.58036E-04
  rms(prec ) = 0.98585E-04
  weight for this iteration     100.00

 eigenvalues of (default mixing * dielectric matrix)
  average eigenvalue GAMMA=   1.8176
  6.8925  3.6613  2.7541  2.3915  1.8625  0.4754  1.3734  1.3734  1.3695  1.3695
  1.0164  1.0164  0.7581  0.8671  0.9501  0.9501

 Free energy of the ion-electron system (eV)
  ---------------------------------------------------
  alpha Z        PSCENC =        36.80884744
  Ewald energy   TEWEN  =     12038.37508336
  -Hartree energ DENC   =    -15164.11367245
  -exchange      EXHF   =         0.00000000
  -V(xc)+E(xc)   XCENC  =       -79.08727301
  PAW double counting   =      1185.20497924     -865.12656095
  entropy T*S    EENTRO =        -0.02684368
  eigenvalues    EBANDS =      -621.04963778
  atomic energy  EATOM  =      3354.04126044
  ---------------------------------------------------
  free energy    TOTEN  =      -114.97381737 eV

  energy without entropy =     -114.94697369  energy(sigma->0) =     -114.96039553


--------------------------------------------------------------------------------------------------------




----------------------------------------- Iteration    1(  22)  ---------------------------------------


    POTLOK:  cpu time   14.69: real time   14.70
    SETDIJ:  cpu time    0.01: real time    0.01
     EDDAV:  cpu time   65.16: real time   65.18
       DOS:  cpu time    0.01: real time    0.01
    CHARGE:  cpu time    4.32: real time    4.32
    MIXING:  cpu time    0.02: real time    0.02
    --------------------------------------------
      LOOP:  cpu time   84.22: real time   84.25

 eigenvalue-minimisations  :  7096
 total energy-change (2. order) : 0.4148455E-04  (-0.1464299E-05)
 number of electron     107.9999996 magnetization 
 augmentation part       -9.4096706 magnetization 

 Broyden mixing:
  rms(total) = 0.35272E-04    rms(broyden)= 0.35270E-04
  rms(prec ) = 0.51645E-04
  weight for this iteration     100.00

 eigenvalues of (default mixing * dielectric matrix)
  average eigenvalue GAMMA=   1.9151
  7.3100  4.7017  2.8991  2.6309  2.0486  1.6302  1.6302  0.4754  1.3042  1.3042
  1.0163  1.0163  0.7580  0.8708  0.9693  0.9693  1.0222

 Free energy of the ion-electron system (eV)
  ---------------------------------------------------
  alpha Z        PSCENC =        36.80884744
  Ewald energy   TEWEN  =     12038.37508336
  -Hartree energ DENC   =    -15164.14734630
  -exchange      EXHF   =         0.00000000
  -V(xc)+E(xc)   XCENC  =       -79.08732210
  PAW double counting   =      1185.20232549     -865.12386192
  entropy T*S    EENTRO =        -0.02684291
  eigenvalues    EBANDS =      -621.01591940
  atomic energy  EATOM  =      3354.04126044
  ---------------------------------------------------
  free energy    TOTEN  =      -114.97377589 eV

  energy without entropy =     -114.94693298  energy(sigma->0) =     -114.96035443


--------------------------------------------------------------------------------------------------------




----------------------------------------- Iteration    1(  23)  ---------------------------------------


    POTLOK:  cpu time   14.70: real time   14.71
    SETDIJ:  cpu time    0.01: real time    0.01
     EDDAV:  cpu time   58.80: real time   58.82
       DOS:  cpu time    0.01: real time    0.01
    CHARGE:  cpu time    4.19: real time    4.19
    MIXING:  cpu time    0.02: real time    0.02
    --------------------------------------------
      LOOP:  cpu time   77.73: real time   77.75

 eigenvalue-minimisations  :  6152
 total energy-change (2. order) : 0.5077159E-04  (-0.7266636E-06)
 number of electron     107.9999996 magnetization 
 augmentation part       -9.4096694 magnetization 

 Broyden mixing:
  rms(total) = 0.20080E-04    rms(broyden)= 0.20078E-04
  rms(prec ) = 0.26735E-04
  weight for this iteration     100.00

 eigenvalues of (default mixing * dielectric matrix)
  average eigenvalue GAMMA=   2.0317
  8.1367  6.1237  2.9836  2.5684  2.0721  2.0721  1.5137  1.5137  0.4754  1.2524
  1.2524  1.0167  1.0167  0.7581  0.8685  0.9610  0.9610  1.0235

 Free energy of the ion-electron system (eV)
  ---------------------------------------------------
  alpha Z        PSCENC =        36.80884744
  Ewald energy   TEWEN  =     12038.37508336
  -Hartree energ DENC   =    -15164.15372772
  -exchange      EXHF   =         0.00000000
  -V(xc)+E(xc)   XCENC  =       -79.08738545
  PAW double counting   =      1185.20118488     -865.12270820
  entropy T*S    EENTRO =        -0.02684335
  eigenvalues    EBANDS =      -621.00943652
  atomic energy  EATOM  =      3354.04126044
  ---------------------------------------------------
  free energy    TOTEN  =      -114.97372512 eV

  energy without entropy =     -114.94688177  energy(sigma->0) =     -114.96030344


[...]
     31      -3.9948      2.00000
     32      -3.9543      2.00000
     33      -3.7118      2.00000
     34      -3.6675      2.00000
     35      -3.3232      2.00000
     36      -3.2065      2.00000
     37      -3.0524      2.00000
     38      -3.0370      2.00000
     39      -2.9459      2.00000
     40      -2.6646      2.00000
     41      -2.5992      2.00000
     42      -2.5171      2.00000
     43      -2.4832      2.00000
     44      -2.2365      2.00000
     45      -1.9855      2.00000
     46      -1.8732      2.00000
     47      -1.7543      2.00000
     48      -1.5562      2.00000
     49      -1.5257      2.00000
     50      -1.3605      2.00000
     51      -1.0298      2.00000
     52      -0.9166      2.00000
     53      -0.6992      2.00000
     54      -0.1917      1.65929
     55       0.3164      0.00000
     56       0.4745      0.00000
     57       1.0191      0.00000
     58       1.4177      0.00000
     59       1.5729      0.00000
     60       1.7247      0.00000
     61       1.9171      0.00000
     62       2.2491      0.00000
     63       2.4185      0.00000
     64       2.5641      0.00000
     65       2.6143      0.00000
     66       2.7498      0.00000
     67       3.0656      0.00000
     68       3.1784      0.00000

 k-point    52 :       0.3077    0.5000    0.5000
  band No.  band energies     occupation 
      1     -14.0865      2.00000
      2     -12.5909      2.00000
      3     -12.4828      2.00000
      4     -12.1387      2.00000
      5     -11.8094      2.00000
      6     -11.6150      2.00000
      7     -11.3214      2.00000
      8     -10.9909      2.00000
      9     -10.7838      2.00000
     10     -10.5344      2.00000
     11     -10.3696      2.00000
     12     -10.2406      2.00000
     13      -9.2483      2.00000
     14      -8.8968      2.00000
     15      -8.6655      2.00000
     16      -7.7488      2.00000
     17      -7.6147      2.00000
     18      -7.2073      2.00000
     19      -7.0389      2.00000
     20      -6.9409      2.00000
     21      -6.2225      2.00000
     22      -6.1619      2.00000
     23      -5.9022      2.00000
     24      -5.8036      2.00000
     25      -5.5190      2.00000
     26      -5.3325      2.00000
     27      -4.9669      2.00000
     28      -4.8741      2.00000
     29      -4.7252      2.00000
     30      -4.4521      2.00000
     31      -4.2990      2.00000
     32      -4.0582      2.00000
     33      -4.0048      2.00000
     34      -3.7329      2.00000
     35      -3.4473      2.00000
     36      -3.2332      2.00000
     37      -3.1709      2.00000
     38      -3.0752      2.00000
     39      -3.0220      2.00000
     40      -2.9087      2.00000
     41      -2.8366      2.00000
     42      -2.6742      2.00000
     43      -2.5120      2.00000
     44      -2.3824      2.00000
     45      -2.2380      2.00000
     46      -1.9504      2.00000
     47      -1.8601      2.00000
     48      -1.7217      2.00000
     49      -1.6629      2.00000
     50      -1.5133      2.00000
     51      -1.2824      2.00000
     52      -1.1385      2.00000
     53      -0.6457      2.00000
     54      -0.5524      2.00000
     55       0.0109      0.05582
     56       0.3241      0.00000
     57       0.9280      0.00000
     58       1.2959      0.00000
     59       1.3594      0.00000
     60       1.6424      0.00000
     61       2.0098      0.00000
     62       2.1550      0.00000
     63       2.2398      0.00000
     64       2.3878      0.00000
     65       2.4756      0.00000
     66       2.5489      0.00000
     67       2.5931      0.00000
     68       2.9518      0.00000

 k-point    53 :       0.3846    0.5000    0.5000
  band No.  band energies     occupation 
      1     -13.6303      2.00000
      2     -12.1503      2.00000
      3     -12.0065      2.00000
      4     -11.6418      2.00000
      5     -11.4675      2.00000
      6     -11.2213      2.00000
      7     -11.0886      2.00000
      8     -10.7835      2.00000
      9     -10.7459      2.00000
     10     -10.5923      2.00000
     11     -10.4356      2.00000
     12     -10.3415      2.00000
     13      -9.1331      2.00000
     14      -9.0908      2.00000
     15      -8.8808      2.00000
     16      -8.2241      2.00000
     17      -7.7177      2.00000
     18      -7.5893      2.00000
     19      -7.4307      2.00000
     20      -7.3566      2.00000
     21      -6.8885      2.00000
     22      -6.6942      2.00000
     23      -6.6335      2.00000
     24      -6.3819      2.00000
     25      -5.5014      2.00000
     26      -5.2684      2.00000
     27      -4.7432      2.00000
     28      -4.6500      2.00000
     29      -4.5239      2.00000
     30      -4.4556      2.00000
     31      -4.1867      2.00000
     32      -4.0952      2.00000
     33      -4.0136      2.00000
     34      -3.8148      2.00000
     35      -3.6858      2.00000
     36      -3.5071      2.00000
     37      -3.4602      2.00000
     38      -3.1699      2.00000
     39      -3.1185      2.00000
     40      -3.1015      2.00000
     41      -2.8728      2.00000
     42      -2.7955      2.00000
     43      -2.5491      2.00000
     44      -2.4673      2.00000
     45      -2.3035      2.00000
     46      -2.1736      2.00000
     47      -2.0456      2.00000
     48      -1.8665      2.00000
     49      -1.7109      2.00000
     50      -1.5445      2.00000
     51      -1.4524      2.00000
     52      -1.4050      2.00000
     53      -0.7953      2.00000
     54      -0.4878      2.00000
     55      -0.1742      1.51880
     56       0.1117      0.00084
     57       0.8622      0.00000
     58       1.2805      0.00000
     59       1.5180      0.00000
     60       1.5384      0.00000
     61       1.8085      0.00000
     62       1.9134      0.00000
     63       2.0566      0.00000
     64       2.1846      0.00000
     65       2.3095      0.00000
     66       2.3825      0.00000
     67       2.5632      0.00000
     68       2.6804      0.00000

 k-point    54 :       0.4615    0.5000    0.5000
  band No.  band energies     occupation 
      1     -13.2344      2.00000
      2     -11.7651      2.00000
      3     -11.4829      2.00000
      4     -11.4623      2.00000
      5     -11.1432      2.00000
      6     -11.0993      2.00000
      7     -10.9266      2.00000
      8     -10.9176      2.00000
      9     -10.8224      2.00000
     10     -10.6963      2.00000
     11     -10.5951      2.00000
     12     -10.2579      2.00000
     13      -9.3814      2.00000
     14      -9.0120      2.00000
     15      -8.6392      2.00000
     16      -8.4143      2.00000
     17      -8.0931      2.00000
     18      -7.8836      2.00000
     19      -7.5831      2.00000
     20      -7.5333      2.00000
     21      -7.2652      2.00000
     22      -7.2124      2.00000
     23      -7.1437      2.00000
     24      -6.6660      2.00000
     25      -5.3197      2.00000
     26      -4.9172      2.00000
     27      -4.7367      2.00000
     28      -4.4603      2.00000
     29      -4.4376      2.00000
     30      -4.2877      2.00000
     31      -4.2089      2.00000
     32      -4.0473      2.00000
     33      -3.9790      2.00000
     34      -3.9139      2.00000
     35      -3.7429      2.00000
     36      -3.6838      2.00000
     37      -3.5274      2.00000
     38      -3.4916      2.00000
     39      -3.2318      2.00000
     40      -3.1136      2.00000
     41      -3.0068      2.00000
     42      -2.8778      2.00000
     43      -2.6907      2.00000
     44      -2.6475      2.00000
     45      -2.3525      2.00000
     46      -2.1971      2.00000
     47      -2.1044      2.00000
     48      -1.9299      2.00000
     49      -1.7675      2.00000
     50      -1.6613      2.00000
     51      -1.5061      2.00000
     52      -1.3747      2.00000
     53      -0.7914      2.00000
     54      -0.4641      2.00000
     55      -0.2548      1.93495
     56      -0.0246      0.15850
     57       0.8283      0.00000
     58       1.3665      0.00000
     59       1.4497      0.00000
     60       1.5546      0.00000
     61       1.6801      0.00000
     62       1.8214      0.00000
     63       1.9945      0.00000
     64       2.0594      0.00000
     65       2.2087      0.00000
     66       2.3399      0.00000
     67       2.5120      0.00000
     68       2.6008      0.00000


--------------------------------------------------------------------------------------------------------


 soft charge-density along one line, spin component           1
         0         1         2         3         4         5         6         7         8         9
 total charge-density along one line
 
 pseudopotential strength for first ion, spin component:           1
 29.769   0.008  -0.001  -0.023  -0.000  -0.000  -0.001   0.000
  0.008   0.009   0.000  -0.000   0.000   0.000   0.000  -0.000
 -0.001   0.000   6.547  -0.001  -0.000  -0.003   0.000   0.000
 -0.023  -0.000  -0.001   6.542  -0.000   0.000  -0.002   0.000
 -0.000   0.000  -0.000  -0.000   6.548   0.000   0.000  -0.003
 -0.000   0.000  -0.003   0.000   0.000   0.015  -0.000  -0.000
 -0.001   0.000   0.000  -0.002   0.000  -0.000   0.015   0.000
  0.000  -0.000   0.000   0.000  -0.003  -0.000   0.000   0.015
 total augmentation occupancy for first ion, spin component:           1
  1.816  -0.355   0.007   0.257   0.000   0.003   0.113  -0.000
 -0.355   1.295   0.024   0.863  -0.000   0.004  -0.434  -0.000
  0.007   0.024   1.142   0.013   0.000  -0.504   0.014   0.000
  0.257   0.863   0.013   1.293   0.000   0.014  -0.420  -0.000
  0.000  -0.000   0.000   0.000   1.144   0.000  -0.000  -0.528
  0.003   0.004  -0.504   0.014   0.000   0.292  -0.015  -0.000
  0.113  -0.434   0.014  -0.420  -0.000  -0.015   0.228   0.000
 -0.000  -0.000   0.000  -0.000  -0.528  -0.000   0.000   0.326


------------------------ aborting loop because EDIFF is reached ----------------------------------------


    CHARGE:  cpu time    4.34: real time    4.34
    FORLOC:  cpu time    0.05: real time    0.05
    FORNL :  cpu time   19.47: real time   19.48
    STRESS:  cpu time   56.00: real time   56.02
    FORCOR:  cpu time   14.67: real time   14.68
    FORHAR:  cpu time    0.14: real time    0.14
    MIXING:  cpu time    0.02: real time    0.02
    OFIELD:  cpu time    0.00: real time    0.00

  FORCE on cell =-STRESS in cart. coord.  units (eV):
  Direction    XX          YY          ZZ          XY          YZ          ZX
  --------------------------------------------------------------------------------------
  Alpha Z    36.80885    36.80885    36.80885
  Ewald   14534.33320 13895.02355-16390.98909    -4.54663   -21.20375    -6.03540
  Hartree 15004.78186 14563.03365-14403.65686     0.28579   -14.76388    -1.58647
  E(xc)    -359.37162  -358.65533  -358.72126     0.12701     0.01504     0.00703
  Local  -31089.30377-30028.92869 29205.59335     3.40428    35.70650     6.09727
  n-local  1175.77768  1161.31531  1176.91882    -2.85423     0.22747    -0.55248
  augment  -203.09764  -204.04873  -206.85518     0.06337     0.06369    -0.08544
  Kinetic   925.79500   943.76092   994.71981     0.91302    -4.12799     1.31996
  Fock        0.00000     0.00000     0.00000     0.00000     0.00000     0.00000
  -------------------------------------------------------------------------------------
  Total      25.72356     8.30953    53.81843    -2.60738    -4.08291    -0.83553
  in kB      41.11831    13.28253    86.02708    -4.16782    -6.52641    -1.33558
  external pressure =       46.81 kB  Pullay stress =        0.00 kB


 VOLUME and BASIS-vectors are now :
 -----------------------------------------------------------------------------
  energy-cutoff  :      300.00
  volume of cell :     1002.32
      direct lattice vectors                 reciprocal lattice vectors
     3.540400000  0.000000000  0.000000000     0.282453960  0.048570342  0.000000000
    -1.770200000 10.294348000  0.000000000     0.000000000  0.097140683  0.000000000
     0.000000000  0.000000000 27.501429000     0.000000000  0.000000000  0.036361747

  length of vectors
     3.540400000 10.445439617 27.501429000     0.286599577  0.097140683  0.036361747


 FORCES acting on ions
    electron-ion (+dipol)            ewald-force                    non-local-force                 convergence-correction
 -----------------------------------------------------------------------------------------------
   0.266E-01 0.770E+01 0.344E+02   -.102E-01 -.748E+01 -.297E+02   -.832E-02 -.254E+00 -.471E+01   0.120E-07 0.186E-06 0.399E-06
   0.128E+00 -.448E+01 -.545E+03   0.537E-01 0.514E+01 0.548E+03   -.758E-01 -.643E+00 -.333E+01   -.624E-07 -.376E-05 0.107E-04
   0.870E-03 0.670E+02 0.476E+02   0.937E-03 -.686E+02 -.433E+02   -.195E-02 0.153E+01 -.415E+01   -.128E-07 -.205E-05 -.134E-05
   0.659E+00 0.179E+02 -.547E+03   -.410E+00 -.190E+02 0.551E+03   -.359E+00 0.877E+00 -.418E+01   -.387E-06 0.689E-05 0.449E-05
   -.704E-03 -.575E+02 0.526E+03   0.857E-04 0.590E+02 -.530E+03   0.964E-04 -.154E+01 0.428E+01   0.200E-08 0.639E-06 0.298E-05
   -.802E-01 -.100E+03 -.843E+02   0.924E-01 0.103E+03 0.827E+02   -.270E+00 -.260E+01 0.240E+01   -.221E-06 0.196E-06 0.197E-05
   0.101E-02 0.544E+02 0.526E+03   0.118E-04 -.563E+02 -.530E+03   0.115E-03 0.191E+01 0.416E+01   -.608E-08 -.802E-06 0.202E-05
   0.241E+01 0.150E+03 -.513E+02   -.244E+01 -.152E+03 0.504E+02   -.101E+01 -.500E+00 -.130E+01   -.132E-05 -.529E-05 -.170E-05
   -.429E-03 0.160E+01 0.573E+03   -.838E-04 -.180E+01 -.577E+03   0.161E-02 0.204E+00 0.477E+01   0.575E-07 0.558E-06 -.532E-05
   -.146E+01 -.326E+02 0.572E+01   0.165E+01 0.323E+02 -.972E+01   -.700E-01 0.528E+00 0.318E+01   0.732E-06 0.389E-05 -.291E-05
   -.493E-03 -.676E+02 0.573E+02   0.658E-03 0.695E+02 -.532E+02   -.760E-03 -.192E+01 -.403E+01   0.248E-07 0.239E-05 0.960E-06
   0.533E+00 -.105E+02 -.542E+03   -.281E+00 0.118E+02 0.545E+03   -.236E+00 -.178E+01 -.163E+01   -.319E-06 -.288E-05 0.575E-05
   0.333E-03 0.320E+02 0.208E+03   -.763E-04 -.342E+02 -.208E+03   0.297E-02 0.212E+01 0.342E+00   -.106E-08 -.900E-06 0.293E-05
   -.731E+01 -.207E+02 -.343E+03   0.596E+01 0.210E+02 0.337E+03   0.415E+01 -.394E+01 0.349E+02   0.106E-06 0.455E-05 0.384E-05
   0.126E-02 -.143E+02 0.139E+03   -.409E-03 0.146E+02 -.142E+03   -.241E-02 -.239E+00 0.253E+01   0.768E-08 0.168E-05 -.417E-06
   0.526E-01 0.373E+02 -.298E+03   -.199E+00 -.353E+02 0.298E+03   0.203E+00 -.149E+01 0.470E+00   0.183E-06 -.444E-05 0.528E-05
   -.587E-03 -.566E+01 0.346E+03   0.654E-04 0.613E+01 -.343E+03   -.233E-03 -.466E+00 -.254E+01   -.555E-08 0.127E-05 0.328E-05
   0.759E+01 -.680E+02 -.716E+02   -.684E+01 0.700E+02 0.761E+02   -.374E+01 0.415E+01 -.333E+02   -.372E-06 0.704E-05 -.815E-06
   0.830E-03 0.101E+02 0.336E+03   0.913E-05 -.103E+02 -.333E+03   -.236E-02 0.227E+00 -.254E+01   0.257E-10 -.392E-06 0.330E-05
   -.202E+02 0.537E+02 -.124E+03   0.180E+02 -.490E+02 0.129E+03   0.120E+02 -.738E+01 -.126E+02   0.128E-05 -.174E-05 -.240E-06
   -.122E-01 0.124E+02 0.129E+03   0.118E-02 -.128E+02 -.131E+03   0.107E-01 0.392E+00 0.254E+01   -.151E-07 -.136E-05 -.767E-06
   0.741E+00 -.215E+02 -.301E+03   -.550E+00 0.215E+02 0.301E+03   0.298E-01 -.160E+00 -.128E+01   -.196E-07 0.196E-05 0.514E-05
   -.241E-03 -.317E+02 0.253E+03   -.838E-04 0.338E+02 -.253E+03   0.173E-02 -.212E+01 -.374E+00   -.552E-08 0.562E-07 0.281E-05
   0.179E+02 0.678E+00 -.266E+03   -.151E+02 -.963E+00 0.267E+03   -.115E+02 0.273E+01 0.967E+01   -.971E-06 -.887E-06 0.428E-05
 -----------------------------------------------------------------------------------------------
   0.901E+00 0.104E+02 0.669E+01   -.124E-13 0.310E-13 0.341E-12   -.895E+00 -.104E+02 -.669E+01   -.131E-05 0.681E-05 0.466E-04
 
 
 POSITION                                       TOTAL-FORCE (eV/Angst)
 -----------------------------------------------------------------------------------
      0.00000      2.34757      6.41229         0.007803     -0.036546     -0.001823
      0.17702      7.49475     14.16300         0.106157      0.014191     -0.084007
     -0.00000      9.43147      5.75866        -0.000412     -0.012895      0.080657
      1.94722      4.28429     13.50937        -0.109647     -0.229268      0.156457
     -0.00000      6.40009      2.31424        -0.000794     -0.003452      0.006942
     -0.00000      6.40009     10.06495        -0.258322     -0.082381      0.792039
      1.77020     10.27849      2.37372         0.000864     -0.000597      0.002158
      1.77020     10.27849     10.12443        -1.032582     -2.147566     -2.142734
      1.77020      3.18974      1.66157         0.000821     -0.000437      0.009285
      1.77020      3.18974      9.41228         0.113084      0.234075     -0.815645
      1.77020      5.55354      5.69975        -0.000868      0.007700      0.092643
      0.17702      0.40637     13.45047         0.014954     -0.425666      0.836660
      1.77020      9.05319      4.34076         0.002950     -0.003435      0.007261
      0.17702      3.90602     12.09147         2.808522     -3.692821     28.431779
      0.00000      4.22380      5.10944        -0.001839      0.012800      0.050068
      0.17702      9.37098     12.86016         0.055933      0.541420      0.203364
     -0.00000      4.15582      2.74166        -0.001027      0.001917     -0.020360
     -0.00000      4.15582     10.49237        -3.002827      6.146857    -28.779917
      1.77020      1.31366      2.96438        -0.001794     -0.009781     -0.014851
      1.77020      1.31366     10.71510         9.804643     -2.657055     -8.253432
      1.77020      1.38163      5.33187        -0.000632     -0.020746      0.015187
      1.94722      6.52880     13.08259         0.220521     -0.093321     -0.919496
      1.77020      6.77850      3.73234         0.001133      0.008950     -0.001731
      0.17702      1.63132     11.48306        -8.726640      2.448056     10.349497
 -----------------------------------------------------------------------------------
    total drift:                                0.006538     -0.000115      0.003087


--------------------------------------------------------------------------------------------------------



  FREE ENERGIE OF THE ION-ELECTRON SYSTEM (eV)
  ---------------------------------------------------
  free  energy   TOTEN  =      -114.97366605 eV

  energy  without entropy=     -114.94682286  energy(sigma->0) =     -114.96024445
 


--------------------------------------------------------------------------------------------------------


    POTLOK:  cpu time   14.64: real time   14.64


--------------------------------------------------------------------------------------------------------


     LOOP+:  cpu time 2580.71: real time 2581.54
    4ORBIT:  cpu time    0.00: real time    0.00

 total amount of memory used by VASP on root node   146493. kBytes
========================================================================

   base      :      30000. kBytes
   nonlr-proj:       3452. kBytes
   fftplans  :       9347. kBytes
   grid      :      14649. kBytes
   one-center:         36. kBytes
   wavefun   :      89009. kBytes
 
  
  
 General timing and accounting informations for this job:
 ========================================================
  
                  Total CPU time used (sec):     2596.332
                            User time (sec):     2563.492
                          System time (sec):       32.840
                         Elapsed time (sec):     2598.242
  
                   Maximum memory used (kb):      335048.
                   Average memory used (kb):           0.
  
                          Minor page faults:      8192140
                          Major page faults:           16
                 Voluntary context switches:         1683
