       N       E                     dE             d eps       ncg     rms          rms(c)
DAV:   1     0.508460742958E+03    0.50846E+03   -0.28744E+04  7368   0.790E+02
DAV:   2    -0.566033471051E+02   -0.56506E+03   -0.54994E+03  9732   0.190E+02
DAV:   3    -0.114603260582E+03   -0.58000E+02   -0.57187E+02  8836   0.631E+01
DAV:   4    -0.117351765343E+03   -0.27485E+01   -0.27260E+01 11288   0.147E+01
DAV:   5    -0.117408746246E+03   -0.56981E-01   -0.56878E-01 10008   0.206E+00    0.128E+01
DAV:   6    -0.112627167450E+03    0.47816E+01   -0.29171E+01  8884   0.130E+01    0.662E+00
DAV:   7    -0.112492001197E+03    0.13517E+00   -0.17613E+01  8820   0.865E+00    0.421E+00
DAV:   8    -0.112287590528E+03    0.20441E+00   -0.39126E+00  9552   0.394E+00    0.210E+00
DAV:   9    -0.112257831667E+03    0.29759E-01   -0.72171E-01  8888   0.238E+00    0.990E-01
DAV:  10    -0.112268979263E+03   -0.11148E-01   -0.15438E-01  8592   0.108E+00    0.358E-01
DAV:  11    -0.112258617556E+03    0.10362E-01   -0.24972E-02  9016   0.495E-01    0.140E-01
DAV:  12    -0.112251368993E+03    0.72486E-02   -0.71471E-03  8696   0.264E-01    0.706E-02
DAV:  13    -0.112245415384E+03    0.59536E-02   -0.10024E-03  9320   0.913E-02    0.326E-02
DAV:  14    -0.112242940583E+03    0.24748E-02   -0.22199E-04  9128   0.443E-02    0.172E-02
DAV:  15    -0.112241505944E+03    0.14346E-02   -0.90696E-05  9296   0.253E-02    0.982E-03
DAV:  16    -0.112241098343E+03    0.40760E-03   -0.45501E-05  7984   0.179E-02    0.642E-03
DAV:  17    -0.112241617155E+03   -0.51881E-03   -0.99917E-05  8096   0.215E-02    0.353E-03
DAV:  18    -0.112241919321E+03   -0.30217E-03   -0.11210E-04  7744   0.184E-02    0.208E-03
DAV:  19    -0.112242033490E+03   -0.11417E-03   -0.53508E-05  7464   0.130E-02    0.124E-03
DAV:  20    -0.112242061510E+03   -0.28020E-04   -0.78231E-06  6256   0.638E-03    0.786E-04
DAV:  21    -0.112242066058E+03   -0.45475E-05   -0.21950E-05  7040   0.889E-03    0.591E-04
DAV:  22    -0.112242056766E+03    0.92918E-05   -0.12673E-05  6648   0.946E-03    0.357E-04
DAV:  23    -0.112241981102E+03    0.75664E-04   -0.22038E-05  7432   0.871E-03    0.176E-04
DAV:  24    -0.112241966046E+03    0.15056E-04   -0.11779E-05  6880   0.916E-03    0.103E-04
DAV:  25    -0.112241946093E+03    0.19953E-04   -0.60055E-06  6576   0.757E-03    0.488E-05
DAV:  26    -0.112241944822E+03    0.12706E-05   -0.54544E-06  6344   0.721E-03    0.254E-05
DAV:  27    -0.112241942220E+03    0.26024E-05   -0.31178E-06  5572   0.566E-03    0.146E-05
DAV:  28    -0.112241941935E+03    0.28498E-06   -0.24643E-06  6432   0.464E-03
   1 F= -.11224194E+03 E0= -.11222419E+03  d E =-.355038E-01
