 vasp.5.3.5 31Mar14 (build Oct 29 2014 16:16:03) complex                        
  
 executed on          Linux-UFHPC date 2016.02.09  18:23:29
 running on    8 total cores
 distrk:  each k-point on    8 cores,    1 groups
 distr:  one band on NCORES_PER_BAND=   2 cores,    4 groups


--------------------------------------------------------------------------------------------------------


 INCAR:
 POTCAR:    PAW_PBE P 17Jan2003                   
 POTCAR:   PAW_PBE Si 05Jan2001                   

 ----------------------------------------------------------------------------- 
|                                                                             |
|  ADVICE TO THIS USER RUNNING 'VASP/VAMP'   (HEAR YOUR MASTER'S VOICE ...):  |
|                                                                             |
|      You have switched on vdW-DFT.                                          |
|      This routine was written and supplied by Jiri Klimes.                  |
|      We recommed that you carefully read and cite the following             |
|      publication                                                            |
|      J. Klimes, D.R. Bowler, A. Michelides                                  |
|        J. Phys.: Cond Matt. 22 022201 (2010)                                |
|      J. Klimes, D.R. Bowler, A. Michelides                                  |
|        Phys. Rev. B. 83, 195131 (2011)                                      |
|      and references therein.                                                |
|                                                                             |
 ----------------------------------------------------------------------------- 

 POTCAR:    PAW_PBE P 17Jan2003                   
   VRHFIN =P : s2p3                                                             
   LEXCH  = PE                                                                  
   EATOM  =   176.0430 eV,   12.9388 Ry                                         
                                                                                
   TITEL  = PAW_PBE P 17Jan2003                                                 
   LULTRA =        F    use ultrasoft PP ?                                      
   IUNSCR =        1    unscreen: 0-lin 1-nonlin 2-no                           
   RPACOR =    1.500    partial core radius                                     
   POMASS =   30.974; ZVAL   =    5.000    mass and valenz                      
   RCORE  =    1.900    outmost cutoff radius                                   
   RWIGS  =    2.330; RWIGS  =    1.233    wigner-seitz radius (au A)           
   ENMAX  =  270.000; ENMIN  =  191.280 eV                                      
   ICORE  =        2    local potential                                         
   LCOR   =        T    correct aug charges                                     
   LPAW   =        T    paw PP                                                  
   EAUG   =  342.924                                                            
   DEXC   =    -.002                                                            
   RMAX   =    2.887    core radius for proj-oper                               
   RAUG   =    1.300    factor for augmentation sphere                          
   RDEP   =    1.931    radius for radial grids                                 
   QCUT   =   -4.330; QGAM   =    8.659    optimization parameters              
                                                                                
   Description                                                                  
     l     E      TYP  RCUT    TYP  RCUT                                        
     0   .000     23  1.900                                                     
     0   .000     23  1.900                                                     
     1   .000     23  1.900                                                     
     1   .000     23  1.900                                                     
     2   .000     23  1.900                                                     
  local pseudopotential read in
  partial core-charges read in
  atomic valenz-charges read in
  non local Contribution for L=           0  read in
    real space projection operators read in
  non local Contribution for L=           0  read in
    real space projection operators read in
  non local Contribution for L=           1  read in
    real space projection operators read in
  non local Contribution for L=           1  read in
    real space projection operators read in
    PAW grid and wavefunctions read in
 
   number of l-projection  operators is LMAX  =           4
   number of lm-projection operators is LMMAX =           8
 
 POTCAR:   PAW_PBE Si 05Jan2001                   
   VRHFIN =Si: s2p2                                                             
   LEXCH  = PE                                                                  
   EATOM  =   103.0669 eV,    7.5752 Ry                                         
                                                                                
   TITEL  = PAW_PBE Si 05Jan2001                                                
   LULTRA =        F    use ultrasoft PP ?                                      
   IUNSCR =        1    unscreen: 0-lin 1-nonlin 2-no                           
   RPACOR =    1.500    partial core radius                                     
   POMASS =   28.085; ZVAL   =    4.000    mass and valenz                      
   RCORE  =    1.900    outmost cutoff radius                                   
   RWIGS  =    2.480; RWIGS  =    1.312    wigner-seitz radius (au A)           
   ENMAX  =  245.345; ENMIN  =  184.009 eV                                      
   ICORE  =        2    local potential                                         
   LCOR   =        T    correct aug charges                                     
   LPAW   =        T    paw PP                                                  
   EAUG   =  322.069                                                            
   DEXC   =    -.007                                                            
   RMAX   =    2.944    core radius for proj-oper                               
   RAUG   =    1.300    factor for augmentation sphere                          
   RDEP   =    1.993    radius for radial grids                                 
   QCUT   =   -4.246; QGAM   =    8.493    optimization parameters              
                                                                                
   Description                                                                  
     l     E      TYP  RCUT    TYP  RCUT                                        
     0   .000     23  1.900                                                     
     0   .000     23  1.900                                                     
     1   .000     23  1.900                                                     
     1   .000     23  1.900                                                     
     2   .000      7  1.900                                                     
  local pseudopotential read in
  partial core-charges read in
  atomic valenz-charges read in
  non local Contribution for L=           0  read in
    real space projection operators read in
  non local Contribution for L=           0  read in
    real space projection operators read in
  non local Contribution for L=           1  read in
    real space projection operators read in
  non local Contribution for L=           1  read in
    real space projection operators read in
    PAW grid and wavefunctions read in
 
   number of l-projection  operators is LMAX  =           4
   number of lm-projection operators is LMMAX =           8
 
 Optimization of the real space projectors (new method)

 maximal supplied QI-value         = 19.84
 optimisation between [QCUT,QGAM] = [  8.73, 17.66] = [ 21.34, 87.33] Ry 
 Optimized for a Real-space Cutoff    1.50 Angstroem

   l    n(q)    QCUT    max X(q) W(low)/X(q) W(high)/X(q)  e(spline) 
   0      8     8.731     6.651    0.16E-04    0.15E-04    0.77E-08
   0      8     8.731    90.285    0.16E-03    0.90E-04    0.16E-06
   1      7     8.731     4.328    0.47E-04    0.36E-04    0.45E-07
   1      7     8.731    54.583    0.13E-03    0.39E-03    0.20E-06
 Optimization of the real space projectors (new method)

 maximal supplied QI-value         = 19.84
 optimisation between [QCUT,QGAM] = [  8.73, 17.66] = [ 21.34, 87.33] Ry 
 Optimized for a Real-space Cutoff    1.46 Angstroem

   l    n(q)    QCUT    max X(q) W(low)/X(q) W(high)/X(q)  e(spline) 
   0      8     8.731     8.708    0.16E-04    0.11E-04    0.68E-08
   0      8     8.731   106.241    0.24E-03    0.77E-04    0.13E-06
   1      7     8.731     5.901    0.34E-04    0.38E-04    0.36E-07
   1      7     8.731    73.241    0.12E-03    0.39E-03    0.15E-06

 ----------------------------------------------------------------------------- 
|                                                                             |
|  ADVICE TO THIS USER RUNNING 'VASP/VAMP'   (HEAR YOUR MASTER'S VOICE ...):  |
|                                                                             |
|      You enforced a specific xc-type in the INCAR file,                     |
|      a different type was found on the POTCAR file                          |
|          I HOPE YOU KNOW, WHAT YOU ARE  DOING                               |
|                                                                             |
 ----------------------------------------------------------------------------- 

  PAW_PBE P 17Jan2003                   :
 energy of atom  1       EATOM= -176.0430
 kinetic energy error for atom=    0.0040 (will be added to EATOM!!)
 PAW_PBE Si 05Jan2001                   :
 energy of atom  2       EATOM= -103.0669
 kinetic energy error for atom=    0.0021 (will be added to EATOM!!)
 
 
 POSCAR: Si12                                    
  positions in direct lattice
  No initial velocities read in
 exchange correlation table for  LEXCH =       42
   RHO(1)=    0.500       N(1)  =     2000
   RHO(2)=  100.500       N(2)  =     4000
 


--------------------------------------------------------------------------------------------------------


 ion  position               nearest neighbor table
   1  0.114  0.228  0.233-  15 2.28  21 2.29  21 2.29
   2  0.814  0.528  0.515-  16 2.28  22 2.29  22 2.29
   3  0.458  0.916  0.209-  21 2.28  13 2.30  13 2.30
   4  0.158  0.216  0.491-  22 2.28  14 2.30  14 2.30
   5  0.311  0.622  0.084-  17 2.28  23 2.30  23 2.30
   6  0.311  0.622  0.366-  18 2.28
   7  0.999  0.998  0.086-  19 2.29  19 2.29  13 2.32
   8  0.999  0.998  0.368-  24 2.13  20 2.29  20 2.29  24 2.41
   9  0.655  0.310  0.060-  19 2.28  17 2.29  17 2.29
  10  0.655  0.310  0.342-  20 2.28  18 2.29  18 2.29  14 3.00
  11  0.770  0.539  0.207-  15 2.29  15 2.29  23 2.32
  12  0.470  0.839  0.489-  16 2.29  16 2.29  24 2.32
  13  0.940  0.879  0.158-   3 2.30   3 2.30   7 2.32  23 2.35
  14  0.640  0.179  0.440-  20 1.49   4 2.30   4 2.30  24 2.35  10 3.00
  15  0.205  0.410  0.186-   1 2.28  11 2.29  11 2.29  17 2.37
  16  0.905  0.710  0.468-   2 2.28  12 2.29  12 2.29
  17  0.202  0.404  0.100-   5 2.28   9 2.29   9 2.29  15 2.37
  18  0.202  0.404  0.382-   6 2.28  10 2.29  10 2.29  22 2.62
  19  0.564  0.128  0.108-   9 2.28   7 2.29   7 2.29  21 2.37
  20  0.564  0.128  0.390-  14 1.49  24 1.91  10 2.28   8 2.29   8 2.29
  21  0.567  0.134  0.194-   3 2.28   1 2.29   1 2.29  19 2.37
  22  0.267  0.434  0.476-   4 2.28   2 2.29   2 2.29  18 2.62
  23  0.829  0.658  0.136-   5 2.30   5 2.30  11 2.32  13 2.35
  24  0.529  0.958  0.418-  20 1.91   8 2.13  12 2.32  14 2.35   8 2.41
 
  LATTYP: Found a base centered orthorhombic cell.
 ALAT       =     3.5404000000
 B/A-ratio  =     5.8153587165
 C/A-ratio  =     7.7678875268
  
  Lattice vectors:
  
 A1 = (   1.7702000000,  10.2943480000,   0.0000000000)
 A2 = (   1.7702000000, -10.2943480000,   0.0000000000)
 A3 = (   0.0000000000,   0.0000000000, -27.5014290000)


Analysis of symmetry for initial positions (statically):
=====================================================================
 Subroutine PRICEL returns:
 Original cell was already a primitive cell.
 

 Routine SETGRP: Setting up the symmetry group for a 
 base centered orthorhombic supercell.


 Subroutine GETGRP returns: Found  1 space group operations
 (whereof  1 operations were pure point group operations)
 out of a pool of  8 trial point group operations.


The static configuration has the point symmetry C_1 .


Analysis of symmetry for dynamics (positions and initial velocities):
=====================================================================
 Subroutine PRICEL returns:
 Original cell was already a primitive cell.
 

 Routine SETGRP: Setting up the symmetry group for a 
 base centered orthorhombic supercell.


 Subroutine GETGRP returns: Found  1 space group operations
 (whereof  1 operations were pure point group operations)
 out of a pool of  8 trial point group operations.


The dynamic configuration has the point symmetry C_1 .
 
 
 KPOINTS: pymatgen generated KPOINTS with grid den

Automatic generation of k-mesh.
Space group operators:
 irot       det(A)        alpha          n_x          n_y          n_z        tau_x        tau_y        tau_z
    1     1.000000     0.000000     1.000000     0.000000     0.000000     0.000000     0.000000     0.000000
 
 Subroutine IBZKPT returns following result:
 ===========================================
 
 Found     54 irreducible k-points:
 
 Following reciprocal coordinates:
            Coordinates               Weight
  0.000000  0.000000  0.000000      1.000000
  0.076923 -0.000000  0.000000      2.000000
  0.153846 -0.000000  0.000000      2.000000
  0.230769 -0.000000  0.000000      2.000000
  0.307692 -0.000000  0.000000      2.000000
  0.384615 -0.000000  0.000000      2.000000
  0.461538 -0.000000  0.000000      2.000000
  0.000000  0.250000  0.000000      2.000000
  0.076923  0.250000  0.000000      2.000000
  0.153846  0.250000  0.000000      2.000000
  0.230769  0.250000  0.000000      2.000000
  0.307692  0.250000  0.000000      2.000000
  0.384615  0.250000  0.000000      2.000000
  0.461538  0.250000  0.000000      2.000000
 -0.461538  0.250000  0.000000      2.000000
 -0.384615  0.250000  0.000000      2.000000
 -0.307692  0.250000  0.000000      2.000000
 -0.230769  0.250000  0.000000      2.000000
 -0.153846  0.250000  0.000000      2.000000
 -0.076923  0.250000  0.000000      2.000000
  0.000000  0.500000  0.000000      1.000000
  0.076923  0.500000  0.000000      2.000000
  0.153846  0.500000  0.000000      2.000000
  0.230769  0.500000  0.000000      2.000000
  0.307692  0.500000  0.000000      2.000000
  0.384615  0.500000  0.000000      2.000000
  0.461538  0.500000  0.000000      2.000000
  0.000000  0.000000  0.500000      1.000000
  0.076923 -0.000000  0.500000      2.000000
  0.153846 -0.000000  0.500000      2.000000
  0.230769 -0.000000  0.500000      2.000000
  0.307692 -0.000000  0.500000      2.000000
  0.384615 -0.000000  0.500000      2.000000
  0.461538 -0.000000  0.500000      2.000000
  0.000000  0.250000  0.500000      2.000000
  0.076923  0.250000  0.500000      2.000000
  0.153846  0.250000  0.500000      2.000000
  0.230769  0.250000  0.500000      2.000000
  0.307692  0.250000  0.500000      2.000000
  0.384615  0.250000  0.500000      2.000000
  0.461538  0.250000  0.500000      2.000000
 -0.461538  0.250000  0.500000      2.000000
 -0.384615  0.250000  0.500000      2.000000
 -0.307692  0.250000  0.500000      2.000000
 -0.230769  0.250000  0.500000      2.000000
 -0.153846  0.250000  0.500000      2.000000
 -0.076923  0.250000  0.500000      2.000000
  0.000000  0.500000  0.500000      1.000000
  0.076923  0.500000  0.500000      2.000000
  0.153846  0.500000  0.500000      2.000000
  0.230769  0.500000  0.500000      2.000000
  0.307692  0.500000  0.500000      2.000000
  0.384615  0.500000  0.500000      2.000000
  0.461538  0.500000  0.500000      2.000000
 
 Following cartesian coordinates:
            Coordinates               Weight
  0.000000  0.000000  0.000000      1.000000
  0.021727  0.003736  0.000000      2.000000
  0.043454  0.007472  0.000000      2.000000
  0.065182  0.011209  0.000000      2.000000
  0.086909  0.014945  0.000000      2.000000
  0.108636  0.018681  0.000000      2.000000
  0.130363  0.022417  0.000000      2.000000
  0.000000  0.024285  0.000000      2.000000
  0.021727  0.028021  0.000000      2.000000
  0.043454  0.031758  0.000000      2.000000
  0.065182  0.035494  0.000000      2.000000
  0.086909  0.039230  0.000000      2.000000
  0.108636  0.042966  0.000000      2.000000
  0.130363  0.046702  0.000000      2.000000
 -0.130363  0.001868  0.000000      2.000000
 -0.108636  0.005604  0.000000      2.000000
 -0.086909  0.009340  0.000000      2.000000
 -0.065182  0.013077  0.000000      2.000000
 -0.043454  0.016813  0.000000      2.000000
 -0.021727  0.020549  0.000000      2.000000
  0.000000  0.048570  0.000000      1.000000
  0.021727  0.052307  0.000000      2.000000
  0.043454  0.056043  0.000000      2.000000
  0.065182  0.059779  0.000000      2.000000
  0.086909  0.063515  0.000000      2.000000
  0.108636  0.067251  0.000000      2.000000
  0.130363  0.070987  0.000000      2.000000
  0.000000  0.000000  0.018181      1.000000
  0.021727  0.003736  0.018181      2.000000
  0.043454  0.007472  0.018181      2.000000
  0.065182  0.011209  0.018181      2.000000
  0.086909  0.014945  0.018181      2.000000
  0.108636  0.018681  0.018181      2.000000
  0.130363  0.022417  0.018181      2.000000
  0.000000  0.024285  0.018181      2.000000
  0.021727  0.028021  0.018181      2.000000
  0.043454  0.031758  0.018181      2.000000
  0.065182  0.035494  0.018181      2.000000
  0.086909  0.039230  0.018181      2.000000
  0.108636  0.042966  0.018181      2.000000
  0.130363  0.046702  0.018181      2.000000
 -0.130363  0.001868  0.018181      2.000000
 -0.108636  0.005604  0.018181      2.000000
 -0.086909  0.009340  0.018181      2.000000
 -0.065182  0.013077  0.018181      2.000000
 -0.043454  0.016813  0.018181      2.000000
 -0.021727  0.020549  0.018181      2.000000
  0.000000  0.048570  0.018181      1.000000
  0.021727  0.052307  0.018181      2.000000
  0.043454  0.056043  0.018181      2.000000
  0.065182  0.059779  0.018181      2.000000
  0.086909  0.063515  0.018181      2.000000
  0.108636  0.067251  0.018181      2.000000
  0.130363  0.070987  0.018181      2.000000
 


--------------------------------------------------------------------------------------------------------




 Dimension of arrays:
   k-points           NKPTS =     54   k-points in BZ     NKDIM =     54   number of bands    NBANDS=     68
   number of dos      NEDOS =    301   number of ions     NIONS =     24
   non local maximal  LDIM  =      4   non local SUM 2l+1 LMDIM =      8
   total plane-waves  NPLWV = 192000
   max r-space proj   IRMAX =   2772   max aug-charges    IRDMAX=   6603
   dimension x,y,z NGX =    20 NGY =   60 NGZ =  160
   dimension x,y,z NGXF=    40 NGYF=  120 NGZF=  320
   support grid    NGXF=    40 NGYF=  120 NGZF=  320
   ions per type =              12  12
 NGX,Y,Z   is equivalent  to a cutoff of   9.39,  9.55,  9.67 a.u.
 NGXF,Y,Z  is equivalent  to a cutoff of  18.78, 19.10, 19.34 a.u.


 I would recommend the setting:
   dimension x,y,z NGX =    20 NGY =   59 NGZ =  155
 SYSTEM =  unknown system                          
 POSCAR =  Si12                                    

 Startparameter for this run:
   NWRITE =      2    write-flag & timer
   PREC   = accura    normal or accurate (medium, high low for compatibility)
   ISTART =      0    job   : 0-new  1-cont  2-samecut
   ICHARG =      2    charge: 1-file 2-atom 10-const
   ISPIN  =      1    spin polarized calculation?
   LNONCOLLINEAR =      F non collinear calculations
   LSORBIT =      F    spin-orbit coupling
   INIWAV =      1    electr: 0-lowe 1-rand  2-diag
   LASPH  =      F    aspherical Exc in radial PAW
   METAGGA=      F    non-selfconsistent MetaGGA calc.

 Electronic Relaxation 1
   ENCUT  =  300.0 eV  22.05 Ry    4.70 a.u.   5.00 14.75 38.84*2*pi/ulx,y,z
   ENINI  =  300.0     initial cutoff
   ENAUG  =  342.9 eV  augmentation charge cutoff
   NELM   =     60;   NELMIN=  2; NELMDL= -5     # of ELM steps 
   EDIFF  = 0.1E-05   stopping-criterion for ELM
   LREAL  =      T    real-space projection
   NLSPLINE    = F    spline interpolate recip. space projectors
   LCOMPAT=      F    compatible to vasp.4.4
   GGA_COMPAT  = T    GGA compatible to vasp.4.4-vasp.4.6
   LMAXPAW     = -100 max onsite density
   LMAXMIX     =    2 max onsite mixed and CHGCAR
   VOSKOWN=      0    Vosko Wilk Nusair interpolation
   ROPT   =   -0.00025  -0.00025
 Ionic relaxation
   EDIFFG = 0.1E-04   stopping-criterion for IOM
   NSW    =      0    number of steps for IOM
   NBLOCK =      1;   KBLOCK =      1    inner block; outer block 
   IBRION =     -1    ionic relax: 0-MD 1-quasi-New 2-CG
   NFREE  =      1    steps in history (QN), initial steepest desc. (CG)
   ISIF   =      3    stress and relaxation
   IWAVPR =     10    prediction:  0-non 1-charg 2-wave 3-comb
   ISYM   =      2    0-nonsym 1-usesym 2-fastsym
   LCORR  =      T    Harris-Foulkes like correction to forces

   POTIM  = 0.5000    time-step for ionic-motion
   TEIN   =    0.0    initial temperature
   TEBEG  =    0.0;   TEEND  =   0.0 temperature during run
   SMASS  =  -3.00    Nose mass-parameter (am)
   estimated Nose-frequenzy (Omega)   =  0.10E-29 period in steps =****** mass=  -0.286E-27a.u.
   SCALEE = 1.0000    scale energy and forces
   NPACO  =    256;   APACO  = 16.0  distance and # of slots for P.C.
   PSTRESS=    0.0 pullay stress

  Mass of Ions in am
   POMASS =  30.97 28.09
  Ionic Valenz
   ZVAL   =   5.00  4.00
  Atomic Wigner-Seitz radii
   RWIGS  =  -1.00 -1.00
  virtual crystal weights 
   VCA    =   1.00  1.00
   NELECT =     108.0000    total number of electrons
   NUPDOWN=      -1.0000    fix difference up-down

 DOS related values:
   EMIN   =  10.00;   EMAX   =-10.00  energy-range for DOS
   EFERMI =   0.00
   ISMEAR =     0;   SIGMA  =   0.10  broadening in eV -4-tet -1-fermi 0-gaus

 Electronic relaxation 2 (details)
   IALGO  =     38    algorithm
   LDIAG  =      T    sub-space diagonalisation (order eigenvalues)
   LSUBROT=      F    optimize rotation matrix (better conditioning)
   TURBO    =      0    0=normal 1=particle mesh
   IRESTART =      0    0=no restart 2=restart with 2 vectors
   NREBOOT  =      0    no. of reboots
   NMIN     =      0    reboot dimension
   EREF     =   0.00    reference energy to select bands
   IMIX   =      4    mixing-type and parameters
     AMIX     =   0.40;   BMIX     =  1.00
     AMIX_MAG =   1.60;   BMIX_MAG =  1.00
     AMIN     =   0.10
     WC   =   100.;   INIMIX=   1;  MIXPRE=   1;  MAXMIX= -45

 Intra band minimization:
   WEIMIN = 0.0000     energy-eigenvalue tresh-hold
   EBREAK =  0.37E-08  absolut break condition
   DEPER  =   0.30     relativ break condition  

   TIME   =   0.40     timestep for ELM

  volume/ion in A,a.u.               =      41.76       281.83
  Fermi-wavevector in a.u.,A,eV,Ry     =   0.779018  1.472130  8.256946  0.606868
  Thomas-Fermi vector in A             =   1.882034
 
 Write flags
   LWAVE  =      F    write WAVECAR
   LCHARG =      F    write CHGCAR
   LVTOT  =      F    write LOCPOT, total local potential
   LVHAR  =      F    write LOCPOT, Hartree potential only
   LELF   =      F    write electronic localiz. function (ELF)
   LORBIT =      0    0 simple, 1 ext, 2 COOP (PROOUT)


 Dipole corrections
   LMONO  =      F    monopole corrections only (constant potential shift)
   LDIPOL =      F    correct potential (dipole corrections)
   IDIPOL =      0    1-x, 2-y, 3-z, 4-all directions 
   EPSILON=  1.0000000 bulk dielectric constant

 Exchange correlation treatment:
   GGA     =    BO    GGA type
   LEXCH   =    42    internal setting for exchange type
   VOSKOWN=      0    Vosko Wilk Nusair interpolation
   LHFCALC =     F    Hartree Fock is set to
   LHFONE  =     F    Hartree Fock one center treatment
   AEXX    =    0.0000 exact exchange contribution

 vdW DFT:
   LUSE_VDW   =     T    switch on vdW DFT
   Zab_VDW    =-.8491    correlation parameter
   PARAM1     =0.1833
   PARAM2     =0.2200
   PARAM3     =0.0000

 Linear response parameters
   LEPSILON=     F    determine dielectric tensor
   LRPA    =     F    only Hartree local field effects (RPA)
   LNABLA  =     F    use nabla operator in PAW spheres
   LVEL    =     F    velocity operator in full k-point grid
   LINTERFAST=   F  fast interpolation
   KINTER  =     0    interpolate to denser k-point grid
   CSHIFT  =0.1000    complex shift for real part using Kramers Kronig
   OMEGAMAX=  -1.0    maximum frequency
   DEG_THRESHOLD= 0.2000000E-02 threshold for treating states as degnerate
   RTIME   =    0.100 relaxation time in fs

 Orbital magnetization related:
   ORBITALMAG=     F  switch on orbital magnetization
   LCHIMAG   =     F  perturbation theory with respect to B field
   DQ        =  0.001000  dq finite difference perturbation B field



--------------------------------------------------------------------------------------------------------


 Static calculation
 charge density and potential will be updated during run
 non-spin polarized calculation
 Variant of blocked Davidson
 Davidson routine will perform the subspace rotation
 perform sub-space diagonalisation
    after iterative eigenvector-optimisation
 modified Broyden-mixing scheme, WC =      100.0
 initial mixing is a Kerker type mixing with AMIX =  0.4000 and BMIX =      1.0000
 Hartree-type preconditioning will be used
 using additional bands           14
 real space projection scheme for non local part
 use partial core corrections
 calculate Harris-corrections to forces 
   (improved forces if not selfconsistent)
 use gradient corrections 
 use of overlap-Matrix (Vanderbilt PP)
 Gauss-broadening in eV      SIGMA  =   0.10


--------------------------------------------------------------------------------------------------------


  energy-cutoff  :      300.00
  volume of cell :     1002.32
      direct lattice vectors                 reciprocal lattice vectors
     3.540400000  0.000000000  0.000000000     0.282453960  0.048570342  0.000000000
    -1.770200000 10.294348000  0.000000000     0.000000000  0.097140683  0.000000000
     0.000000000  0.000000000 27.501429000     0.000000000  0.000000000  0.036361747

  length of vectors
     3.540400000 10.445439617 27.501429000     0.286599577  0.097140683  0.036361747


 
 k-points in units of 2pi/SCALE and weight: pymatgen generated KPOINTS with grid den
   0.00000000  0.00000000  0.00000000       0.010
   0.02172723  0.00373618  0.00000000       0.019
   0.04345446  0.00747236  0.00000000       0.019
   0.06518168  0.01120854  0.00000000       0.019
   0.08690891  0.01494472  0.00000000       0.019
   0.10863614  0.01868090  0.00000000       0.019
   0.13036337  0.02241708  0.00000000       0.019
   0.00000000  0.02428517  0.00000000       0.019
   0.02172723  0.02802135  0.00000000       0.019
   0.04345446  0.03175753  0.00000000       0.019
   0.06518168  0.03549371  0.00000000       0.019
   0.08690891  0.03922989  0.00000000       0.019
   0.10863614  0.04296607  0.00000000       0.019
   0.13036337  0.04670225  0.00000000       0.019
  -0.13036337  0.00186809  0.00000000       0.019
  -0.10863614  0.00560427  0.00000000       0.019
  -0.08690891  0.00934045  0.00000000       0.019
  -0.06518168  0.01307663  0.00000000       0.019
  -0.04345446  0.01681281  0.00000000       0.019
  -0.02172723  0.02054899  0.00000000       0.019
   0.00000000  0.04857034  0.00000000       0.010
   0.02172723  0.05230652  0.00000000       0.019
   0.04345446  0.05604270  0.00000000       0.019
   0.06518168  0.05977888  0.00000000       0.019
   0.08690891  0.06351506  0.00000000       0.019
   0.10863614  0.06725124  0.00000000       0.019
   0.13036337  0.07098742  0.00000000       0.019
   0.00000000  0.00000000  0.01818087       0.010
   0.02172723  0.00373618  0.01818087       0.019
   0.04345446  0.00747236  0.01818087       0.019
   0.06518168  0.01120854  0.01818087       0.019
   0.08690891  0.01494472  0.01818087       0.019
   0.10863614  0.01868090  0.01818087       0.019
   0.13036337  0.02241708  0.01818087       0.019
   0.00000000  0.02428517  0.01818087       0.019
   0.02172723  0.02802135  0.01818087       0.019
   0.04345446  0.03175753  0.01818087       0.019
   0.06518168  0.03549371  0.01818087       0.019
   0.08690891  0.03922989  0.01818087       0.019
   0.10863614  0.04296607  0.01818087       0.019
   0.13036337  0.04670225  0.01818087       0.019
  -0.13036337  0.00186809  0.01818087       0.019
  -0.10863614  0.00560427  0.01818087       0.019
  -0.08690891  0.00934045  0.01818087       0.019
  -0.06518168  0.01307663  0.01818087       0.019
  -0.04345446  0.01681281  0.01818087       0.019
  -0.02172723  0.02054899  0.01818087       0.019
   0.00000000  0.04857034  0.01818087       0.010
   0.02172723  0.05230652  0.01818087       0.019
   0.04345446  0.05604270  0.01818087       0.019
   0.06518168  0.05977888  0.01818087       0.019
   0.08690891  0.06351506  0.01818087       0.019
   0.10863614  0.06725124  0.01818087       0.019
   0.13036337  0.07098742  0.01818087       0.019
 
 k-points in reciprocal lattice and weights: pymatgen generated KPOINTS with grid den
   0.00000000  0.00000000  0.00000000       0.010
   0.07692308 -0.00000000  0.00000000       0.019
   0.15384615 -0.00000000  0.00000000       0.019
   0.23076923 -0.00000000  0.00000000       0.019
   0.30769231 -0.00000000  0.00000000       0.019
   0.38461538 -0.00000000  0.00000000       0.019
   0.46153846 -0.00000000  0.00000000       0.019
   0.00000000  0.25000000  0.00000000       0.019
   0.07692308  0.25000000  0.00000000       0.019
   0.15384615  0.25000000  0.00000000       0.019
   0.23076923  0.25000000  0.00000000       0.019
   0.30769231  0.25000000  0.00000000       0.019
   0.38461538  0.25000000  0.00000000       0.019
   0.46153846  0.25000000  0.00000000       0.019
  -0.46153846  0.25000000  0.00000000       0.019
  -0.38461538  0.25000000  0.00000000       0.019
  -0.30769231  0.25000000  0.00000000       0.019
  -0.23076923  0.25000000  0.00000000       0.019
  -0.15384615  0.25000000  0.00000000       0.019
  -0.07692308  0.25000000  0.00000000       0.019
   0.00000000  0.50000000  0.00000000       0.010
   0.07692308  0.50000000  0.00000000       0.019
   0.15384615  0.50000000  0.00000000       0.019
   0.23076923  0.50000000  0.00000000       0.019
   0.30769231  0.50000000  0.00000000       0.019
   0.38461538  0.50000000  0.00000000       0.019
   0.46153846  0.50000000  0.00000000       0.019
   0.00000000  0.00000000  0.50000000       0.010
   0.07692308 -0.00000000  0.50000000       0.019
   0.15384615 -0.00000000  0.50000000       0.019
   0.23076923 -0.00000000  0.50000000       0.019
   0.30769231 -0.00000000  0.50000000       0.019
   0.38461538 -0.00000000  0.50000000       0.019
   0.46153846 -0.00000000  0.50000000       0.019
   0.00000000  0.25000000  0.50000000       0.019
   0.07692308  0.25000000  0.50000000       0.019
   0.15384615  0.25000000  0.50000000       0.019
   0.23076923  0.25000000  0.50000000       0.019
   0.30769231  0.25000000  0.50000000       0.019
   0.38461538  0.25000000  0.50000000       0.019
   0.46153846  0.25000000  0.50000000       0.019
  -0.46153846  0.25000000  0.50000000       0.019
  -0.38461538  0.25000000  0.50000000       0.019
  -0.30769231  0.25000000  0.50000000       0.019
  -0.23076923  0.25000000  0.50000000       0.019
  -0.15384615  0.25000000  0.50000000       0.019
  -0.07692308  0.25000000  0.50000000       0.019
   0.00000000  0.50000000  0.50000000       0.010
   0.07692308  0.50000000  0.50000000       0.019
   0.15384615  0.50000000  0.50000000       0.019
   0.23076923  0.50000000  0.50000000       0.019
   0.30769231  0.50000000  0.50000000       0.019
   0.38461538  0.50000000  0.50000000       0.019
   0.46153846  0.50000000  0.50000000       0.019
 
 position of ions in fractional coordinates (direct lattice) 
   0.11402300  0.22804500  0.23316207
   0.81402300  0.52804500  0.51499159
   0.45808900  0.91617900  0.20939482
   0.15808900  0.21617900  0.49122434
   0.31085400  0.62170900  0.08414979
   0.31085400  0.62170900  0.36597930
   0.99923000  0.99846000  0.08631254
   0.99923000  0.99846000  0.36814206
   0.65492700  0.30985400  0.06041748
   0.65492700  0.30985400  0.34224700
   0.76973800  0.53947500  0.20725292
   0.46973800  0.83947500  0.48908244
   0.93971600  0.87943300  0.15783749
   0.63971600  0.17943300  0.43966701
   0.20515200  0.41030300  0.18578822
   0.90515200  0.71030300  0.46761774
   0.20184900  0.40369900  0.09969156
   0.20184900  0.40369900  0.38152107
   0.56380500  0.12761000  0.10779021
   0.56380500  0.12761000  0.38961973
   0.56710600  0.13421200  0.19387616
   0.26710600  0.43421200  0.47570568
   0.82923400  0.65846800  0.13571444
   0.52923400  0.95846800  0.41754396
 
 position of ions in cartesian coordinates  (Angst):
   0.00000177  2.34757459  6.41229012
   1.94722177  5.43587899 14.16300462
  -0.00000177  9.43146546  5.75865686
   0.17701823  2.22542186 13.50937136
  -0.00000177  6.40008880  2.31423934
  -0.00000177  6.40008880 10.06495384
   1.77020000 10.27849470  2.37371832
   1.77020000 10.27849470 10.12443282
   1.77020000  3.18974491  1.66156717
   1.77020000  3.18974491  9.41228167
   1.77020177  5.55354339  5.69975143
   0.17702177  8.64184779 13.45046593
   1.77019823  9.05318934  4.34075665
   1.94721823  1.84714574 12.09147115
   0.00000177  4.22380187  5.10944151
   1.94722177  7.31210627 12.86015601
  -0.00000177  4.15581799  2.74166024
  -0.00000177  4.15581799 10.49237474
   1.77020000  1.31366175  2.96438477
   1.77020000  1.31366175 10.71509927
   1.77020000  1.38162503  5.33187152
   0.17702000  4.46992943 13.08258602
   1.77020000  6.77849874  3.73234107
   0.17702000  9.86680314 11.48305557
 


--------------------------------------------------------------------------------------------------------


 k-point  1 :   0.0000 0.0000 0.0000  plane waves:   11717
 k-point  2 :   0.0769-0.0000 0.0000  plane waves:   11762
 k-point  3 :   0.1538-0.0000 0.0000  plane waves:   11805
 k-point  4 :   0.2308-0.0000 0.0000  plane waves:   11824
 k-point  5 :   0.3077-0.0000 0.0000  plane waves:   11875
 k-point  6 :   0.3846-0.0000 0.0000  plane waves:   11864
 k-point  7 :   0.4615-0.0000 0.0000  plane waves:   11883
 k-point  8 :   0.0000 0.2500 0.0000  plane waves:   11683
 k-point  9 :   0.0769 0.2500 0.0000  plane waves:   11756
 k-point 10 :   0.1538 0.2500 0.0000  plane waves:   11807
 k-point 11 :   0.2308 0.2500 0.0000  plane waves:   11853
 k-point 12 :   0.3077 0.2500 0.0000  plane waves:   11866
 k-point 13 :   0.3846 0.2500 0.0000  plane waves:   11889
 k-point 14 :   0.4615 0.2500 0.0000  plane waves:   11885
 k-point 15 :  -0.4615 0.2500 0.0000  plane waves:   11886
 k-point 16 :  -0.3846 0.2500 0.0000  plane waves:   11867
 k-point 17 :  -0.3077 0.2500 0.0000  plane waves:   11849
 k-point 18 :  -0.2308 0.2500 0.0000  plane waves:   11827
 k-point 19 :  -0.1538 0.2500 0.0000  plane waves:   11801
 k-point 20 :  -0.0769 0.2500 0.0000  plane waves:   11757
 k-point 21 :   0.0000 0.5000 0.0000  plane waves:   11710
 k-point 22 :   0.0769 0.5000 0.0000  plane waves:   11762
 k-point 23 :   0.1538 0.5000 0.0000  plane waves:   11782
 k-point 24 :   0.2308 0.5000 0.0000  plane waves:   11841
 k-point 25 :   0.3077 0.5000 0.0000  plane waves:   11876
 k-point 26 :   0.3846 0.5000 0.0000  plane waves:   11889
 k-point 27 :   0.4615 0.5000 0.0000  plane waves:   11881
 k-point 28 :   0.0000 0.0000 0.5000  plane waves:   11698
 k-point 29 :   0.0769-0.0000 0.5000  plane waves:   11752
 k-point 30 :   0.1538-0.0000 0.5000  plane waves:   11800
 k-point 31 :   0.2308-0.0000 0.5000  plane waves:   11834
 k-point 32 :   0.3077-0.0000 0.5000  plane waves:   11850
 k-point 33 :   0.3846-0.0000 0.5000  plane waves:   11888
 k-point 34 :   0.4615-0.0000 0.5000  plane waves:   11896
 k-point 35 :   0.0000 0.2500 0.5000  plane waves:   11714
 k-point 36 :   0.0769 0.2500 0.5000  plane waves:   11754
 k-point 37 :   0.1538 0.2500 0.5000  plane waves:   11802
 k-point 38 :   0.2308 0.2500 0.5000  plane waves:   11840
 k-point 39 :   0.3077 0.2500 0.5000  plane waves:   11858
 k-point 40 :   0.3846 0.2500 0.5000  plane waves:   11896
 k-point 41 :   0.4615 0.2500 0.5000  plane waves:   11886
 k-point 42 :  -0.4615 0.2500 0.5000  plane waves:   11852
 k-point 43 :  -0.3846 0.2500 0.5000  plane waves:   11838
 k-point 44 :  -0.3077 0.2500 0.5000  plane waves:   11842
 k-point 45 :  -0.2308 0.2500 0.5000  plane waves:   11840
 k-point 46 :  -0.1538 0.2500 0.5000  plane waves:   11804
 k-point 47 :  -0.0769 0.2500 0.5000  plane waves:   11748
 k-point 48 :   0.0000 0.5000 0.5000  plane waves:   11724
 k-point 49 :   0.0769 0.5000 0.5000  plane waves:   11748
 k-point 50 :   0.1538 0.5000 0.5000  plane waves:   11814
 k-point 51 :   0.2308 0.5000 0.5000  plane waves:   11832
 k-point 52 :   0.3077 0.5000 0.5000  plane waves:   11868
 k-point 53 :   0.3846 0.5000 0.5000  plane waves:   11892
 k-point 54 :   0.4615 0.5000 0.5000  plane waves:   11878

 maximum and minimum number of plane-waves per node :      5964     5832

 maximum number of plane-waves:     11896
 maximum index in each direction: 
   IXMAX=    5   IYMAX=   14   IZMAX=   38
   IXMIN=   -5   IYMIN=  -15   IZMIN=  -39

 WARNING: aliasing errors must be expected set NGX to  22 to avoid them
 NGY is ok and might be reduce to  60
 NGZ is ok and might be reduce to 156
 aliasing errors are usually negligible using standard VASP settings
 and one can safely disregard these warnings

 real space projection operators:
  total allocation   :       3793.25 KBytes
  max/ min on nodes  :       1899.38       1893.88


 parallel 3D FFT for wavefunctions:
    minimum data exchange during FFTs selected (reduces bandwidth)
 parallel 3D FFT for charge:
    minimum data exchange during FFTs selected (reduces bandwidth)


 total amount of memory used by VASP on root node   146493. kBytes
========================================================================

   base      :      30000. kBytes
   nonlr-proj:       3452. kBytes
   fftplans  :       9347. kBytes
   grid      :      14649. kBytes
   one-center:         36. kBytes
   wavefun   :      89009. kBytes
 
     INWAV:  cpu time    0.00: real time    0.00
 Broyden mixing: mesh for mixing (old mesh)
   NGX =  9   NGY = 29   NGZ = 77
  (NGX  = 40   NGY  =120   NGZ  =320)
  gives a total of  20097 points

 initial charge density was supplied:
 charge density of overlapping atoms calculated
 number of electron     108.0000000 magnetization 
 keeping initial charge density in first step


--------------------------------------------------------------------------------------------------------


 Maximum index for non-local projection operator         1333
 Maximum index for augmentation-charges          822 (set IRDMAX)


--------------------------------------------------------------------------------------------------------


 First call to EWALD:  gamma=   0.177
 Maximum number of real-space cells 7x 3x 1
 Maximum number of reciprocal cells 1x 3x 7

 FEWALD executed in parallel
    FEWALD:  cpu time    0.00: real time    0.00


----------------------------------------- Iteration    1(   1)  ---------------------------------------


vdW kernel read from vdw_kernel.bindat
  0.0000  0.2424  0.5071  0.7962  1.1119  1.4567  1.8333  2.2446  2.6937  3.1842
  3.7199  4.3049  4.9438  5.6415  6.4036  7.2358  8.1446  9.1372 10.2212 11.4050
 12.6979 14.1099 15.6519 17.3360 19.1751 21.1837 23.3773 25.7729 28.3892 31.2465
 34.3669 37.7748 41.4965 45.5611 50.0000
 
    POTLOK:  cpu time   16.32: real time   16.33
    SETDIJ:  cpu time    0.01: real time    0.01
     EDDAV:  cpu time   70.81: real time   70.82
       DOS:  cpu time    0.01: real time    0.01
    --------------------------------------------
      LOOP:  cpu time   87.16: real time   87.18

 eigenvalue-minimisations  :  7368
 total energy-change (2. order) : 0.5084607E+03  (-0.2874395E+04)
 number of electron     108.0000000 magnetization 
 augmentation part      108.0000000 magnetization 

 Free energy of the ion-electron system (eV)
  ---------------------------------------------------
  alpha Z        PSCENC =        36.80884744
  Ewald energy   TEWEN  =     11988.55130123
  -Hartree energ DENC   =    -15011.82755071
  -exchange      EXHF   =         0.00000000
  -V(xc)+E(xc)   XCENC  =       -87.39515135
  PAW double counting   =      1056.43050070     -732.41190547
  entropy T*S    EENTRO =        -0.05195933
  eigenvalues    EBANDS =       -95.68460000
  atomic energy  EATOM  =      3354.04126044
  ---------------------------------------------------
  free energy    TOTEN  =       508.46074296 eV

  energy without entropy =      508.51270228  energy(sigma->0) =      508.48672262


--------------------------------------------------------------------------------------------------------




----------------------------------------- Iteration    1(   2)  ---------------------------------------


     EDDAV:  cpu time   87.48: real time   87.49
       DOS:  cpu time    0.01: real time    0.01
    --------------------------------------------
      LOOP:  cpu time   87.49: real time   87.51

 eigenvalue-minimisations  :  9732
 total energy-change (2. order) :-0.5650641E+03  (-0.5499414E+03)
 number of electron     108.0000000 magnetization 
 augmentation part      108.0000000 magnetization 

 Free energy of the ion-electron system (eV)
  ---------------------------------------------------
  alpha Z        PSCENC =        36.80884744
  Ewald energy   TEWEN  =     11988.55130123
  -Hartree energ DENC   =    -15011.82755071
  -exchange      EXHF   =         0.00000000
  -V(xc)+E(xc)   XCENC  =       -87.39515135
  PAW double counting   =      1056.43050070     -732.41190547
  entropy T*S    EENTRO =        -0.01939738
  eigenvalues    EBANDS =      -660.78125201
  atomic energy  EATOM  =      3354.04126044
  ---------------------------------------------------
  free energy    TOTEN  =       -56.60334711 eV

  energy without entropy =      -56.58394973  energy(sigma->0) =      -56.59364842


--------------------------------------------------------------------------------------------------------




----------------------------------------- Iteration    1(   3)  ---------------------------------------


     EDDAV:  cpu time   80.94: real time   80.96
       DOS:  cpu time    0.01: real time    0.01
    --------------------------------------------
      LOOP:  cpu time   80.96: real time   80.97

 eigenvalue-minimisations  :  8836
 total energy-change (2. order) :-0.5799991E+02  (-0.5718687E+02)
 number of electron     108.0000000 magnetization 
 augmentation part      108.0000000 magnetization 

 Free energy of the ion-electron system (eV)
  ---------------------------------------------------
  alpha Z        PSCENC =        36.80884744
  Ewald energy   TEWEN  =     11988.55130123
  -Hartree energ DENC   =    -15011.82755071
  -exchange      EXHF   =         0.00000000
  -V(xc)+E(xc)   XCENC  =       -87.39515135
  PAW double counting   =      1056.43050070     -732.41190547
  entropy T*S    EENTRO =        -0.02474442
  eigenvalues    EBANDS =      -718.77581844
  atomic energy  EATOM  =      3354.04126044
  ---------------------------------------------------
  free energy    TOTEN  =      -114.60326058 eV

  energy without entropy =     -114.57851616  energy(sigma->0) =     -114.59088837


--------------------------------------------------------------------------------------------------------




----------------------------------------- Iteration    1(   4)  ---------------------------------------


     EDDAV:  cpu time   98.69: real time   98.71
       DOS:  cpu time    0.01: real time    0.01
    --------------------------------------------
      LOOP:  cpu time   98.70: real time   98.72

 eigenvalue-minimisations  : 11288
 total energy-change (2. order) :-0.2748505E+01  (-0.2726031E+01)
 number of electron     108.0000000 magnetization 
 augmentation part      108.0000000 magnetization 

 Free energy of the ion-electron system (eV)
  ---------------------------------------------------
  alpha Z        PSCENC =        36.80884744
  Ewald energy   TEWEN  =     11988.55130123
  -Hartree energ DENC   =    -15011.82755071
  -exchange      EXHF   =         0.00000000
  -V(xc)+E(xc)   XCENC  =       -87.39515135
  PAW double counting   =      1056.43050070     -732.41190547
  entropy T*S    EENTRO =        -0.03183850
  eigenvalues    EBANDS =      -721.51722913
  atomic energy  EATOM  =      3354.04126044
  ---------------------------------------------------
  free energy    TOTEN  =      -117.35176534 eV

  energy without entropy =     -117.31992685  energy(sigma->0) =     -117.33584610


--------------------------------------------------------------------------------------------------------




----------------------------------------- Iteration    1(   5)  ---------------------------------------


     EDDAV:  cpu time   89.94: real time   89.96
       DOS:  cpu time    0.01: real time    0.01
    CHARGE:  cpu time    4.59: real time    4.59
    MIXING:  cpu time    0.01: real time    0.01
    --------------------------------------------
      LOOP:  cpu time   94.56: real time   94.58

 eigenvalue-minimisations  : 10008
 total energy-change (2. order) :-0.5698090E-01  (-0.5687807E-01)
 number of electron     107.9999996 magnetization 
 augmentation part       -9.6908531 magnetization 

 Broyden mixing:
  rms(total) = 0.12791E+01    rms(broyden)= 0.12789E+01
  rms(prec ) = 0.14093E+01
  weight for this iteration     100.00

 Free energy of the ion-electron system (eV)
  ---------------------------------------------------
  alpha Z        PSCENC =        36.80884744
  Ewald energy   TEWEN  =     11988.55130123
  -Hartree energ DENC   =    -15011.82755071
  -exchange      EXHF   =         0.00000000
  -V(xc)+E(xc)   XCENC  =       -87.39515135
  PAW double counting   =      1056.43050070     -732.41190547
  entropy T*S    EENTRO =        -0.03182773
  eigenvalues    EBANDS =      -721.57422080
  atomic energy  EATOM  =      3354.04126044
  ---------------------------------------------------
  free energy    TOTEN  =      -117.40874625 eV

  energy without entropy =     -117.37691852  energy(sigma->0) =     -117.39283238


--------------------------------------------------------------------------------------------------------




----------------------------------------- Iteration    1(   6)  ---------------------------------------


    POTLOK:  cpu time   14.69: real time   14.69
    SETDIJ:  cpu time    0.01: real time    0.01
     EDDAV:  cpu time   80.59: real time   80.60
       DOS:  cpu time    0.01: real time    0.01
    CHARGE:  cpu time    4.53: real time    4.53
    MIXING:  cpu time    0.02: real time    0.02
    --------------------------------------------
      LOOP:  cpu time   99.85: real time   99.87

 eigenvalue-minimisations  :  8884
 total energy-change (2. order) : 0.4781579E+01  (-0.2917093E+01)
 number of electron     107.9999994 magnetization 
 augmentation part       -9.5153433 magnetization 

 Broyden mixing:
  rms(total) = 0.66173E+00    rms(broyden)= 0.66166E+00
  rms(prec ) = 0.74139E+00
  weight for this iteration     100.00

 eigenvalues of (default mixing * dielectric matrix)
  average eigenvalue GAMMA=   1.2640
  1.2640

 Free energy of the ion-electron system (eV)
  ---------------------------------------------------
  alpha Z        PSCENC =        36.80884744
  Ewald energy   TEWEN  =     11988.55130123
  -Hartree energ DENC   =    -15068.36868223
  -exchange      EXHF   =         0.00000000
  -V(xc)+E(xc)   XCENC  =       -84.11426974
  PAW double counting   =      1125.45816916     -803.55087206
  entropy T*S    EENTRO =        -0.03092979
  eigenvalues    EBANDS =      -661.42199192
  atomic energy  EATOM  =      3354.04126044
  ---------------------------------------------------
  free energy    TOTEN  =      -112.62716745 eV

  energy without entropy =     -112.59623766  energy(sigma->0) =     -112.61170256


--------------------------------------------------------------------------------------------------------




----------------------------------------- Iteration    1(   7)  ---------------------------------------


    POTLOK:  cpu time   14.71: real time   14.72
    SETDIJ:  cpu time    0.01: real time    0.01
     EDDAV:  cpu time   79.71: real time   79.72
       DOS:  cpu time    0.01: real time    0.01
    CHARGE:  cpu time    4.58: real time    4.58
    MIXING:  cpu time    0.02: real time    0.02
    --------------------------------------------
      LOOP:  cpu time   99.04: real time   99.06

 eigenvalue-minimisations  :  8820
 total energy-change (2. order) : 0.1351663E+00  (-0.1761296E+01)
 number of electron     107.9999996 magnetization 
 augmentation part       -9.4733309 magnetization 

 Broyden mixing:
  rms(total) = 0.42146E+00    rms(broyden)= 0.42141E+00
  rms(prec ) = 0.47845E+00
  weight for this iteration     100.00

 eigenvalues of (default mixing * dielectric matrix)
  average eigenvalue GAMMA=   1.0760
  1.5734  0.5786

 Free energy of the ion-electron system (eV)
  ---------------------------------------------------
  alpha Z        PSCENC =        36.80884744
  Ewald energy   TEWEN  =     11988.55130123
  -Hartree energ DENC   =    -15082.30140657
  -exchange      EXHF   =         0.00000000
  -V(xc)+E(xc)   XCENC  =       -82.10274139
  PAW double counting   =      1160.65833657     -839.75808158
  entropy T*S    EENTRO =        -0.03068076
  eigenvalues    EBANDS =      -648.35883659
  atomic energy  EATOM  =      3354.04126044
  ---------------------------------------------------
  free energy    TOTEN  =      -112.49200120 eV

  energy without entropy =     -112.46132044  energy(sigma->0) =     -112.47666082


--------------------------------------------------------------------------------------------------------




----------------------------------------- Iteration    1(   8)  ---------------------------------------


    POTLOK:  cpu time   14.72: real time   14.73
    SETDIJ:  cpu time    0.01: real time    0.01
     EDDAV:  cpu time   85.64: real time   85.66
       DOS:  cpu time    0.01: real time    0.01
    CHARGE:  cpu time    4.54: real time    4.54
    MIXING:  cpu time    0.01: real time    0.01
    --------------------------------------------
      LOOP:  cpu time  104.94: real time  104.96

 eigenvalue-minimisations  :  9552
 total energy-change (2. order) : 0.2044107E+00  (-0.3912639E+00)
 number of electron     107.9999995 magnetization 
 augmentation part       -9.4291420 magnetization 

 Broyden mixing:
  rms(total) = 0.21028E+00    rms(broyden)= 0.21025E+00
  rms(prec ) = 0.23420E+00
  weight for this iteration     100.00

 eigenvalues of (default mixing * dielectric matrix)
  average eigenvalue GAMMA=   1.1761
  1.9067  1.0769  0.5447

 Free energy of the ion-electron system (eV)
  ---------------------------------------------------
  alpha Z        PSCENC =        36.80884744
  Ewald energy   TEWEN  =     11988.55130123
  -Hartree energ DENC   =    -15090.35059915
  -exchange      EXHF   =         0.00000000
  -V(xc)+E(xc)   XCENC  =       -80.83755215
  PAW double counting   =      1179.73981343     -859.41701389
  entropy T*S    EENTRO =        -0.02993127
  eigenvalues    EBANDS =      -640.79371660
  atomic energy  EATOM  =      3354.04126044
  ---------------------------------------------------
  free energy    TOTEN  =      -112.28759053 eV

  energy without entropy =     -112.25765926  energy(sigma->0) =     -112.27262489


--------------------------------------------------------------------------------------------------------




----------------------------------------- Iteration    1(   9)  ---------------------------------------


    POTLOK:  cpu time   14.75: real time   14.76
    SETDIJ:  cpu time    0.01: real time    0.01
     EDDAV:  cpu time   80.98: real time   81.00
       DOS:  cpu time    0.01: real time    0.01
    CHARGE:  cpu time    4.47: real time    4.47
    MIXING:  cpu time    0.02: real time    0.02
    --------------------------------------------
      LOOP:  cpu time  100.26: real time  100.28

 eigenvalue-minimisations  :  8888
 total energy-change (2. order) : 0.2975886E-01  (-0.7217134E-01)
 number of electron     107.9999995 magnetization 
 augmentation part       -9.4215471 magnetization 

 Broyden mixing:
  rms(total) = 0.98992E-01    rms(broyden)= 0.98982E-01
  rms(prec ) = 0.10667E+00
  weight for this iteration     100.00

 eigenvalues of (default mixing * dielectric matrix)
  average eigenvalue GAMMA=   1.2199
  2.3302  1.1963  0.8419  0.5112

 Free energy of the ion-electron system (eV)
  ---------------------------------------------------
  alpha Z        PSCENC =        36.80884744
  Ewald energy   TEWEN  =     11988.55130123
  -Hartree energ DENC   =    -15103.85092324
  -exchange      EXHF   =         0.00000000
  -V(xc)+E(xc)   XCENC  =       -80.00462606
  PAW double counting   =      1188.40136066     -868.33928876
  entropy T*S    EENTRO =        -0.03641727
  eigenvalues    EBANDS =      -627.82934611
  atomic energy  EATOM  =      3354.04126044
  ---------------------------------------------------
  free energy    TOTEN  =      -112.25783167 eV

  energy without entropy =     -112.22141439  energy(sigma->0) =     -112.23962303


--------------------------------------------------------------------------------------------------------




----------------------------------------- Iteration    1(  10)  ---------------------------------------


    POTLOK:  cpu time   14.70: real time   14.71
    SETDIJ:  cpu time    0.01: real time    0.01
     EDDAV:  cpu time   78.41: real time   78.42
       DOS:  cpu time    0.01: real time    0.01
    CHARGE:  cpu time    4.47: real time    4.47
    MIXING:  cpu time    0.02: real time    0.02
    --------------------------------------------
      LOOP:  cpu time   97.63: real time   97.65

 eigenvalue-minimisations  :  8592
 total energy-change (2. order) :-0.1114760E-01  (-0.1543803E-01)
 number of electron     107.9999995 magnetization 
 augmentation part       -9.4130604 magnetization 

 Broyden mixing:
  rms(total) = 0.35808E-01    rms(broyden)= 0.35804E-01
  rms(prec ) = 0.39082E-01
  weight for this iteration     100.00

 eigenvalues of (default mixing * dielectric matrix)
  average eigenvalue GAMMA=   1.2545
  2.4979  1.2335  1.2335  0.7928  0.5150

 Free energy of the ion-electron system (eV)
  ---------------------------------------------------
  alpha Z        PSCENC =        36.80884744
  Ewald energy   TEWEN  =     11988.55130123
  -Hartree energ DENC   =    -15108.16368195
  -exchange      EXHF   =         0.00000000
  -V(xc)+E(xc)   XCENC  =       -79.53067449
  PAW double counting   =      1190.69958846     -870.72652410
  entropy T*S    EENTRO =        -0.03748628
  eigenvalues    EBANDS =      -623.91161002
  atomic energy  EATOM  =      3354.04126044
  ---------------------------------------------------
  free energy    TOTEN  =      -112.26897926 eV

  energy without entropy =     -112.23149298  energy(sigma->0) =     -112.25023612


--------------------------------------------------------------------------------------------------------




----------------------------------------- Iteration    1(  11)  ---------------------------------------


    POTLOK:  cpu time   14.74: real time   14.75
    SETDIJ:  cpu time    0.01: real time    0.01
     EDDAV:  cpu time   81.16: real time   81.17
       DOS:  cpu time    0.01: real time    0.01
    CHARGE:  cpu time    4.56: real time    4.56
    MIXING:  cpu time    0.02: real time    0.02
    --------------------------------------------
      LOOP:  cpu time  100.50: real time  100.52

 eigenvalue-minimisations  :  9016
 total energy-change (2. order) : 0.1036171E-01  (-0.2497182E-02)
 number of electron     107.9999995 magnetization 
 augmentation part       -9.4152207 magnetization 

 Broyden mixing:
  rms(total) = 0.14015E-01    rms(broyden)= 0.14012E-01
  rms(prec ) = 0.16160E-01
  weight for this iteration     100.00

 eigenvalues of (default mixing * dielectric matrix)
  average eigenvalue GAMMA=   1.2529
  2.6257  0.5157  1.3359  1.1063  1.1063  0.8274

 Free energy of the ion-electron system (eV)
  ---------------------------------------------------
  alpha Z        PSCENC =        36.80884744
  Ewald energy   TEWEN  =     11988.55130123
  -Hartree energ DENC   =    -15109.39911717
  -exchange      EXHF   =         0.00000000
  -V(xc)+E(xc)   XCENC  =       -79.43755894
  PAW double counting   =      1188.96852293     -868.95687709
  entropy T*S    EENTRO =        -0.03475314
  eigenvalues    EBANDS =      -622.80024328
  atomic energy  EATOM  =      3354.04126044
  ---------------------------------------------------
  free energy    TOTEN  =      -112.25861756 eV

  energy without entropy =     -112.22386442  energy(sigma->0) =     -112.24124099


--------------------------------------------------------------------------------------------------------




----------------------------------------- Iteration    1(  12)  ---------------------------------------


    POTLOK:  cpu time   14.76: real time   14.76
    SETDIJ:  cpu time    0.01: real time    0.01
     EDDAV:  cpu time   79.05: real time   79.06
       DOS:  cpu time    0.01: real time    0.01
    CHARGE:  cpu time    4.57: real time    4.57
    MIXING:  cpu time    0.02: real time    0.02
    --------------------------------------------
      LOOP:  cpu time   98.42: real time   98.44

 eigenvalue-minimisations  :  8696
 total energy-change (2. order) : 0.7248564E-02  (-0.7147100E-03)
 number of electron     107.9999995 magnetization 
 augmentation part       -9.4175958 magnetization 

 Broyden mixing:
  rms(total) = 0.70572E-02    rms(broyden)= 0.70564E-02
  rms(prec ) = 0.82094E-02
  weight for this iteration     100.00

 eigenvalues of (default mixing * dielectric matrix)
  average eigenvalue GAMMA=   1.2869
  2.6244  1.8989  0.5160  1.0703  1.0703  0.9565  0.8719

 Free energy of the ion-electron system (eV)
  ---------------------------------------------------
  alpha Z        PSCENC =        36.80884744
  Ewald energy   TEWEN  =     11988.55130123
  -Hartree energ DENC   =    -15110.66555132
  -exchange      EXHF   =         0.00000000
  -V(xc)+E(xc)   XCENC  =       -79.40412252
  PAW double counting   =      1187.86606088     -867.82489095
  entropy T*S    EENTRO =        -0.03564001
  eigenvalues    EBANDS =      -621.58863418
  atomic energy  EATOM  =      3354.04126044
  ---------------------------------------------------
  free energy    TOTEN  =      -112.25136899 eV

  energy without entropy =     -112.21572898  energy(sigma->0) =     -112.23354899


--------------------------------------------------------------------------------------------------------




----------------------------------------- Iteration    1(  13)  ---------------------------------------


    POTLOK:  cpu time   14.76: real time   14.76
    SETDIJ:  cpu time    0.01: real time    0.01
     EDDAV:  cpu time   83.52: real time   83.54
       DOS:  cpu time    0.01: real time    0.01
    CHARGE:  cpu time    4.46: real time    4.46
    MIXING:  cpu time    0.02: real time    0.02
    --------------------------------------------
      LOOP:  cpu time  102.79: real time  102.81

 eigenvalue-minimisations  :  9320
 total energy-change (2. order) : 0.5953609E-02  (-0.1002408E-03)
 number of electron     107.9999995 magnetization 
 augmentation part       -9.4185626 magnetization 

 Broyden mixing:
  rms(total) = 0.32647E-02    rms(broyden)= 0.32643E-02
  rms(prec ) = 0.44355E-02
  weight for this iteration     100.00

 eigenvalues of (default mixing * dielectric matrix)
  average eigenvalue GAMMA=   1.3182
  2.7161  2.0249  0.5161  1.1934  1.1934  0.8353  1.0331  1.0331

 Free energy of the ion-electron system (eV)
  ---------------------------------------------------
  alpha Z        PSCENC =        36.80884744
  Ewald energy   TEWEN  =     11988.55130123
  -Hartree energ DENC   =    -15111.47531973
  -exchange      EXHF   =         0.00000000
  -V(xc)+E(xc)   XCENC  =       -79.40465896
  PAW double counting   =      1186.90700272     -866.83989273
  entropy T*S    EENTRO =        -0.03552787
  eigenvalues    EBANDS =      -620.79842794
  atomic energy  EATOM  =      3354.04126044
  ---------------------------------------------------
  free energy    TOTEN  =      -112.24541538 eV

  energy without entropy =     -112.20988752  energy(sigma->0) =     -112.22765145


--------------------------------------------------------------------------------------------------------




----------------------------------------- Iteration    1(  14)  ---------------------------------------


    POTLOK:  cpu time   14.74: real time   14.74
    SETDIJ:  cpu time    0.01: real time    0.02
     EDDAV:  cpu time   82.60: real time   82.62
       DOS:  cpu time    0.01: real time    0.01
    CHARGE:  cpu time    4.51: real time    4.51
    MIXING:  cpu time    0.02: real time    0.02
    --------------------------------------------
      LOOP:  cpu time  101.90: real time  101.92

 eigenvalue-minimisations  :  9128
 total energy-change (2. order) : 0.2474801E-02  (-0.2219913E-04)
 number of electron     107.9999995 magnetization 
 augmentation part       -9.4182586 magnetization 

 Broyden mixing:
  rms(total) = 0.17167E-02    rms(broyden)= 0.17166E-02
  rms(prec ) = 0.27668E-02
  weight for this iteration     100.00

 eigenvalues of (default mixing * dielectric matrix)
  average eigenvalue GAMMA=   1.3604
  2.7707  2.4067  1.6561  0.5161  1.0923  1.0923  0.8140  0.9477  0.9477

 Free energy of the ion-electron system (eV)
  ---------------------------------------------------
  alpha Z        PSCENC =        36.80884744
  Ewald energy   TEWEN  =     11988.55130123
  -Hartree energ DENC   =    -15112.24931909
  -exchange      EXHF   =         0.00000000
  -V(xc)+E(xc)   XCENC  =       -79.39769588
  PAW double counting   =      1186.58295714     -866.50784254
  entropy T*S    EENTRO =        -0.03553662
  eigenvalues    EBANDS =      -620.03691270
  atomic energy  EATOM  =      3354.04126044
  ---------------------------------------------------
  free energy    TOTEN  =      -112.24294058 eV

  energy without entropy =     -112.20740396  energy(sigma->0) =     -112.22517227


--------------------------------------------------------------------------------------------------------




----------------------------------------- Iteration    1(  15)  ---------------------------------------


    POTLOK:  cpu time   14.76: real time   14.76
    SETDIJ:  cpu time    0.01: real time    0.01
     EDDAV:  cpu time   84.18: real time   84.19
       DOS:  cpu time    0.01: real time    0.01
    CHARGE:  cpu time    4.49: real time    4.49
    MIXING:  cpu time    0.02: real time    0.02
    --------------------------------------------
      LOOP:  cpu time  103.47: real time  103.49

 eigenvalue-minimisations  :  9296
 total energy-change (2. order) : 0.1434639E-02  (-0.9069635E-05)
 number of electron     107.9999995 magnetization 
 augmentation part       -9.4179402 magnetization 

 Broyden mixing:
  rms(total) = 0.98222E-03    rms(broyden)= 0.98217E-03
  rms(prec ) = 0.17543E-02
  weight for this iteration     100.00

 eigenvalues of (default mixing * dielectric matrix)
  average eigenvalue GAMMA=   1.3927
  3.0485  2.5425  1.5776  0.5161  1.3118  1.1107  1.1107  0.7956  0.9569  0.9569

 Free energy of the ion-electron system (eV)
  ---------------------------------------------------
  alpha Z        PSCENC =        36.80884744
  Ewald energy   TEWEN  =     11988.55130123
  -Hartree energ DENC   =    -15113.08128536
  -exchange      EXHF   =         0.00000000
  -V(xc)+E(xc)   XCENC  =       -79.39369196
  PAW double counting   =      1186.38482355     -866.30497603
  entropy T*S    EENTRO =        -0.03549442
  eigenvalues    EBANDS =      -619.21229084
  atomic energy  EATOM  =      3354.04126044
  ---------------------------------------------------
  free energy    TOTEN  =      -112.24150594 eV

  energy without entropy =     -112.20601152  energy(sigma->0) =     -112.22375873


--------------------------------------------------------------------------------------------------------




----------------------------------------- Iteration    1(  16)  ---------------------------------------


    POTLOK:  cpu time   14.73: real time   14.74
    SETDIJ:  cpu time    0.01: real time    0.01
     EDDAV:  cpu time   74.61: real time   74.62
       DOS:  cpu time    0.01: real time    0.01
    CHARGE:  cpu time    4.57: real time    4.57
    MIXING:  cpu time    0.02: real time    0.02
    --------------------------------------------
      LOOP:  cpu time   93.96: real time   93.98

 eigenvalue-minimisations  :  7984
 total energy-change (2. order) : 0.4076008E-03  (-0.4550137E-05)
 number of electron     107.9999995 magnetization 
 augmentation part       -9.4178334 magnetization 

 Broyden mixing:
  rms(total) = 0.64209E-03    rms(broyden)= 0.64205E-03
  rms(prec ) = 0.11115E-02
  weight for this iteration     100.00

 eigenvalues of (default mixing * dielectric matrix)
  average eigenvalue GAMMA=   1.4896
  3.5363  2.6785  2.0418  1.7377  0.5161  1.1213  1.1213  0.9583  0.9583  0.8030
  0.9134

 Free energy of the ion-electron system (eV)
  ---------------------------------------------------
  alpha Z        PSCENC =        36.80884744
  Ewald energy   TEWEN  =     11988.55130123
  -Hartree energ DENC   =    -15113.81668068
  -exchange      EXHF   =         0.00000000
  -V(xc)+E(xc)   XCENC  =       -79.38951207
  PAW double counting   =      1186.30442946     -866.22276540
  entropy T*S    EENTRO =        -0.03549972
  eigenvalues    EBANDS =      -618.48247905
  atomic energy  EATOM  =      3354.04126044
  ---------------------------------------------------
  free energy    TOTEN  =      -112.24109834 eV

  energy without entropy =     -112.20559862  energy(sigma->0) =     -112.22334848


--------------------------------------------------------------------------------------------------------




----------------------------------------- Iteration    1(  17)  ---------------------------------------


    POTLOK:  cpu time   14.79: real time   14.79
    SETDIJ:  cpu time    0.01: real time    0.01
     EDDAV:  cpu time   75.37: real time   75.39
       DOS:  cpu time    0.01: real time    0.01
    CHARGE:  cpu time    4.56: real time    4.56
    MIXING:  cpu time    0.02: real time    0.02
    --------------------------------------------
      LOOP:  cpu time   94.76: real time   94.78

 eigenvalue-minimisations  :  8096
 total energy-change (2. order) :-0.5188116E-03  (-0.9991674E-05)
 number of electron     107.9999995 magnetization 
 augmentation part       -9.4177638 magnetization 

 Broyden mixing:
  rms(total) = 0.35309E-03    rms(broyden)= 0.35307E-03
  rms(prec ) = 0.59776E-03
  weight for this iteration     100.00

 eigenvalues of (default mixing * dielectric matrix)
  average eigenvalue GAMMA=   1.5695
  4.4367  2.7459  2.2687  1.5079  1.5079  0.5161  1.1314  1.1314  0.9432  0.9432
  0.8034  0.8976

 Free energy of the ion-electron system (eV)
  ---------------------------------------------------
  alpha Z        PSCENC =        36.80884744
  Ewald energy   TEWEN  =     11988.55130123
  -Hartree energ DENC   =    -15114.45235941
  -exchange      EXHF   =         0.00000000
  -V(xc)+E(xc)   XCENC  =       -79.38597425
  PAW double counting   =      1186.33000232     -866.24901499
  entropy T*S    EENTRO =        -0.03550802
  eigenvalues    EBANDS =      -617.85017192
  atomic energy  EATOM  =      3354.04126044
  ---------------------------------------------------
  free energy    TOTEN  =      -112.24161715 eV

  energy without entropy =     -112.20610913  energy(sigma->0) =     -112.22386314


--------------------------------------------------------------------------------------------------------




----------------------------------------- Iteration    1(  18)  ---------------------------------------


    POTLOK:  cpu time   14.79: real time   14.80
    SETDIJ:  cpu time    0.01: real time    0.01
     EDDAV:  cpu time   73.81: real time   73.82
       DOS:  cpu time    0.01: real time    0.01
    CHARGE:  cpu time    4.62: real time    4.62
    MIXING:  cpu time    0.02: real time    0.02
    --------------------------------------------
      LOOP:  cpu time   93.27: real time   93.29

 eigenvalue-minimisations  :  7744
 total energy-change (2. order) :-0.3021668E-03  (-0.1120995E-04)
 number of electron     107.9999995 magnetization 
 augmentation part       -9.4176954 magnetization 

 Broyden mixing:
  rms(total) = 0.20800E-03    rms(broyden)= 0.20798E-03
  rms(prec ) = 0.36183E-03
  weight for this iteration     100.00

 eigenvalues of (default mixing * dielectric matrix)
  average eigenvalue GAMMA=   1.7029
  5.7691  2.8464  2.5111  1.8821  1.6242  0.5161  1.1193  1.1193  0.9519  0.9519
  1.1144  0.8023  0.9293

 Free energy of the ion-electron system (eV)
  ---------------------------------------------------
  alpha Z        PSCENC =        36.80884744
  Ewald energy   TEWEN  =     11988.55130123
  -Hartree energ DENC   =    -15114.78456089
  -exchange      EXHF   =         0.00000000
  -V(xc)+E(xc)   XCENC  =       -79.38430329
  PAW double counting   =      1186.34898236     -866.26840687
  entropy T*S    EENTRO =        -0.03549716
  eigenvalues    EBANDS =      -617.51954260
  atomic energy  EATOM  =      3354.04126044
  ---------------------------------------------------
  free energy    TOTEN  =      -112.24191932 eV

  energy without entropy =     -112.20642216  energy(sigma->0) =     -112.22417074


--------------------------------------------------------------------------------------------------------




----------------------------------------- Iteration    1(  19)  ---------------------------------------


    POTLOK:  cpu time   14.79: real time   14.79
    SETDIJ:  cpu time    0.01: real time    0.01
     EDDAV:  cpu time   69.66: real time   69.68
       DOS:  cpu time    0.01: real time    0.01
    CHARGE:  cpu time    4.36: real time    4.36
    MIXING:  cpu time    0.02: real time    0.02
    --------------------------------------------
      LOOP:  cpu time   88.85: real time   88.87

 eigenvalue-minimisations  :  7464
 total energy-change (2. order) :-0.1141689E-03  (-0.5350755E-05)
 number of electron     107.9999995 magnetization 
 augmentation part       -9.4176934 magnetization 

 Broyden mixing:
  rms(total) = 0.12449E-03    rms(broyden)= 0.12448E-03
  rms(prec ) = 0.22160E-03
  weight for this iteration     100.00

 eigenvalues of (default mixing * dielectric matrix)
  average eigenvalue GAMMA=   1.7285
  6.2198  2.8869  2.5739  1.9867  1.4991  1.4991  0.5161  1.1223  1.1223  1.1509
  0.9483  0.9483  0.8033  0.9222

 Free energy of the ion-electron system (eV)
  ---------------------------------------------------
  alpha Z        PSCENC =        36.80884744
  Ewald energy   TEWEN  =     11988.55130123
  -Hartree energ DENC   =    -15115.00670217
  -exchange      EXHF   =         0.00000000
  -V(xc)+E(xc)   XCENC  =       -79.38327432
  PAW double counting   =      1186.35960785     -866.27916551
  entropy T*S    EENTRO =        -0.03551043
  eigenvalues    EBANDS =      -617.29839804
  atomic energy  EATOM  =      3354.04126044
  ---------------------------------------------------
  free energy    TOTEN  =      -112.24203349 eV

  energy without entropy =     -112.20652306  energy(sigma->0) =     -112.22427827


--------------------------------------------------------------------------------------------------------




----------------------------------------- Iteration    1(  20)  ---------------------------------------


    POTLOK:  cpu time   14.70: real time   14.70
    SETDIJ:  cpu time    0.01: real time    0.01
     EDDAV:  cpu time   61.10: real time   61.11
       DOS:  cpu time    0.01: real time    0.01
    CHARGE:  cpu time    4.72: real time    4.72
    MIXING:  cpu time    0.02: real time    0.02
    --------------------------------------------
      LOOP:  cpu time   80.56: real time   80.58

 eigenvalue-minimisations  :  6256
 total energy-change (2. order) :-0.2802024E-04  (-0.7823140E-06)
 number of electron     107.9999995 magnetization 
 augmentation part       -9.4176910 magnetization 

 Broyden mixing:
  rms(total) = 0.78615E-04    rms(broyden)= 0.78612E-04
  rms(prec ) = 0.15016E-03
  weight for this iteration     100.00

 eigenvalues of (default mixing * dielectric matrix)
  average eigenvalue GAMMA=   1.7840
  6.7338  3.1646  2.6775  2.2168  1.8653  0.5161  1.1240  1.1240  1.4115  1.3029
  0.9530  0.9530  0.8045  0.9562  0.9562

 Free energy of the ion-electron system (eV)
  ---------------------------------------------------
  alpha Z        PSCENC =        36.80884744
  Ewald energy   TEWEN  =     11988.55130123
  -Hartree energ DENC   =    -15115.07353982
  -exchange      EXHF   =         0.00000000
  -V(xc)+E(xc)   XCENC  =       -79.38316916
  PAW double counting   =      1186.35660284     -866.27607506
  entropy T*S    EENTRO =        -0.03550182
  eigenvalues    EBANDS =      -617.23178760
  atomic energy  EATOM  =      3354.04126044
  ---------------------------------------------------
  free energy    TOTEN  =      -112.24206151 eV

  energy without entropy =     -112.20655969  energy(sigma->0) =     -112.22431060


--------------------------------------------------------------------------------------------------------




----------------------------------------- Iteration    1(  21)  ---------------------------------------


    POTLOK:  cpu time   14.79: real time   14.79
    SETDIJ:  cpu time    0.01: real time    0.01
     EDDAV:  cpu time   70.09: real time   70.10
       DOS:  cpu time    0.01: real time    0.01
    CHARGE:  cpu time    4.68: real time    4.68
    MIXING:  cpu time    0.02: real time    0.02
    --------------------------------------------
      LOOP:  cpu time   89.60: real time   89.62

 eigenvalue-minimisations  :  7040
 total energy-change (2. order) :-0.4547546E-05  (-0.2195038E-05)
 number of electron     107.9999995 magnetization 
 augmentation part       -9.4176866 magnetization 

 Broyden mixing:
  rms(total) = 0.59059E-04    rms(broyden)= 0.59057E-04
  rms(prec ) = 0.90622E-04
  weight for this iteration     100.00

 eigenvalues of (default mixing * dielectric matrix)
  average eigenvalue GAMMA=   1.8143
  6.9083  3.5222  2.7214  2.4282  1.8263  1.5753  1.5753  0.5161  1.1197  1.1197
  1.1520  0.9513  0.9513  0.8043  0.9286  0.9286

 Free energy of the ion-electron system (eV)
  ---------------------------------------------------
  alpha Z        PSCENC =        36.80884744
  Ewald energy   TEWEN  =     11988.55130123
  -Hartree energ DENC   =    -15115.14258735
  -exchange      EXHF   =         0.00000000
  -V(xc)+E(xc)   XCENC  =       -79.38308533
  PAW double counting   =      1186.35476897     -866.27418718
  entropy T*S    EENTRO =        -0.03550385
  eigenvalues    EBANDS =      -617.16288043
  atomic energy  EATOM  =      3354.04126044
  ---------------------------------------------------
  free energy    TOTEN  =      -112.24206606 eV

  energy without entropy =     -112.20656221  energy(sigma->0) =     -112.22431413


--------------------------------------------------------------------------------------------------------




----------------------------------------- Iteration    1(  22)  ---------------------------------------


    POTLOK:  cpu time   14.79: real time   14.80
    SETDIJ:  cpu time    0.01: real time    0.01
     EDDAV:  cpu time   66.89: real time   66.91
       DOS:  cpu time    0.01: real time    0.01
    CHARGE:  cpu time    4.64: real time    4.64
    MIXING:  cpu time    0.02: real time    0.02
    --------------------------------------------
      LOOP:  cpu time   86.38: real time   86.40

 eigenvalue-minimisations  :  6648
 total energy-change (2. order) : 0.9291806E-05  (-0.1267330E-05)
 number of electron     107.9999995 magnetization 
 augmentation part       -9.4176879 magnetization 

 Broyden mixing:
  rms(total) = 0.35659E-04    rms(broyden)= 0.35656E-04
  rms(prec ) = 0.51558E-04
  weight for this iteration     100.00

 eigenvalues of (default mixing * dielectric matrix)
  average eigenvalue GAMMA=   1.9643
  7.5271  5.2468  2.8951  2.5522  1.9586  1.9586  1.4227  1.4227  0.5161  1.1185
  1.1185  0.9490  0.9490  0.8040  0.9951  0.9951  0.9647

 Free energy of the ion-electron system (eV)
  ---------------------------------------------------
  alpha Z        PSCENC =        36.80884744
  Ewald energy   TEWEN  =     11988.55130123
  -Hartree energ DENC   =    -15115.14971955
  -exchange      EXHF   =         0.00000000
  -V(xc)+E(xc)   XCENC  =       -79.38321975
  PAW double counting   =      1186.35323395     -866.27262592
  entropy T*S    EENTRO =        -0.03550464
  eigenvalues    EBANDS =      -617.15562998
  atomic energy  EATOM  =      3354.04126044
  ---------------------------------------------------
  free energy    TOTEN  =      -112.24205677 eV

  energy without entropy =     -112.20655213  energy(sigma->0) =     -112.22430445


--------------------------------------------------------------------------------------------------------




----------------------------------------- Iteration    1(  23)  ---------------------------------------


    POTLOK:  cpu time   14.81: real time   14.81
    SETDIJ:  cpu time    0.01: real time    0.01
     EDDAV:  cpu time   72.64: real time   72.65
       DOS:  cpu time    0.01: real time    0.01
    CHARGE:  cpu time    4.75: real time    4.75
    MIXING:  cpu time    0.02: real time    0.02
    --------------------------------------------
      LOOP:  cpu time   92.25: real time   92.27

 eigenvalue-minimisations  :  7432
 total energy-change (2. order) : 0.7566418E-04  (-0.2203822E-05)
 number of electron     107.9999995 magnetization 
 augmentation part       -9.4176885 magnetization 

 Broyden mixing:
  rms(total) = 0.17627E-04    rms(broyden)= 0.17623E-04
  rms(prec ) = 0.22675E-04
  weight for this iteration     100.00

 eigenvalues of (default mixing * dielectric matrix)
  average eigenvalue GAMMA=   2.0107
  7.9437  6.1682  2.9960  2.6646  2.1741  1.7419  1.5283  1.5283  0.5161  1.1199
  1.1199  0.9533  0.9533  1.1048  0.8042  0.9827  0.9827  0.9109

 Free energy of the ion-electron system (eV)
  ---------------------------------------------------
  alpha Z        PSCENC =        36.80884744
  Ewald energy   TEWEN  =     11988.55130123
  -Hartree energ DENC   =    -15115.16744154
  -exchange      EXHF   =         0.00000000
  -V(xc)+E(xc)   XCENC  =       -79.38323847
  PAW double counting   =      1186.35095108     -866.27029939
  entropy T*S    EENTRO =        -0.03550246
  eigenvalues    EBANDS =      -617.13785943
  atomic energy  EATOM  =      3354.04126044
  ---------------------------------------------------
  free energy    TOTEN  =      -112.24198110 eV

  energy without entropy =     -112.20647864  energy(sigma->0) =     -112.22422987


[...]
     31      -4.2175      2.00000
     32      -3.8957      2.00000
     33      -3.7389      2.00000
     34      -3.6084      2.00000
     35      -3.2900      2.00000
     36      -3.1152      2.00000
     37      -3.0359      2.00000
     38      -2.9460      2.00000
     39      -2.9037      2.00000
     40      -2.6952      2.00000
     41      -2.6210      2.00000
     42      -2.4917      2.00000
     43      -2.4207      2.00000
     44      -2.2672      2.00000
     45      -2.1140      2.00000
     46      -1.8833      2.00000
     47      -1.7825      2.00000
     48      -1.6811      2.00000
     49      -1.6418      2.00000
     50      -1.2691      2.00000
     51      -0.9856      2.00000
     52      -0.8465      2.00000
     53      -0.2465      2.00000
     54      -0.0251      1.94023
     55       0.2470      0.04925
     56       0.9880      0.00000
     57       1.0995      0.00000
     58       1.5236      0.00000
     59       1.6657      0.00000
     60       1.7596      0.00000
     61       2.1100      0.00000
     62       2.2872      0.00000
     63       2.3331      0.00000
     64       2.7245      0.00000
     65       2.8334      0.00000
     66       2.8489      0.00000
     67       2.9030      0.00000
     68       3.1696      0.00000

 k-point    52 :       0.3077    0.5000    0.5000
  band No.  band energies     occupation 
      1     -14.3622      2.00000
      2     -12.3882      2.00000
      3     -12.2670      2.00000
      4     -12.0425      2.00000
      5     -11.6566      2.00000
      6     -11.5237      2.00000
      7     -11.3607      2.00000
      8     -10.9141      2.00000
      9     -10.8858      2.00000
     10     -10.6851      2.00000
     11     -10.4195      2.00000
     12     -10.2720      2.00000
     13      -9.4987      2.00000
     14      -8.8011      2.00000
     15      -8.0508      2.00000
     16      -7.6549      2.00000
     17      -7.4910      2.00000
     18      -6.9444      2.00000
     19      -6.8641      2.00000
     20      -6.8233      2.00000
     21      -6.4967      2.00000
     22      -6.1432      2.00000
     23      -6.0641      2.00000
     24      -5.8040      2.00000
     25      -5.7791      2.00000
     26      -5.2368      2.00000
     27      -4.8067      2.00000
     28      -4.7722      2.00000
     29      -4.5719      2.00000
     30      -4.3554      2.00000
     31      -4.2134      2.00000
     32      -4.1540      2.00000
     33      -3.9619      2.00000
     34      -3.8432      2.00000
     35      -3.4955      2.00000
     36      -3.1546      2.00000
     37      -3.0932      2.00000
     38      -2.9628      2.00000
     39      -2.9044      2.00000
     40      -2.8154      2.00000
     41      -2.7790      2.00000
     42      -2.6183      2.00000
     43      -2.4402      2.00000
     44      -2.3894      2.00000
     45      -2.3179      2.00000
     46      -2.1235      2.00000
     47      -1.8349      2.00000
     48      -1.7593      2.00000
     49      -1.6478      2.00000
     50      -1.5897      2.00000
     51      -1.2399      2.00000
     52      -1.0804      2.00000
     53      -0.5393      2.00000
     54      -0.1456      1.99966
     55       0.1578      0.48144
     56       0.6531      0.00000
     57       0.9477      0.00000
     58       1.3321      0.00000
     59       1.4280      0.00000
     60       1.5026      0.00000
     61       1.8242      0.00000
     62       2.1196      0.00000
     63       2.2961      0.00000
     64       2.4052      0.00000
     65       2.5758      0.00000
     66       2.6911      0.00000
     67       2.7413      0.00000
     68       2.9863      0.00000

 k-point    53 :       0.3846    0.5000    0.5000
  band No.  band energies     occupation 
      1     -13.9211      2.00000
      2     -11.9118      2.00000
      3     -11.8093      2.00000
      4     -11.5456      2.00000
      5     -11.4102      2.00000
      6     -11.1702      2.00000
      7     -11.1219      2.00000
      8     -10.8566      2.00000
      9     -10.6592      2.00000
     10     -10.6053      2.00000
     11     -10.4933      2.00000
     12     -10.3385      2.00000
     13      -9.5523      2.00000
     14      -8.7855      2.00000
     15      -8.4251      2.00000
     16      -8.1292      2.00000
     17      -7.8212      2.00000
     18      -7.4941      2.00000
     19      -7.2659      2.00000
     20      -7.2073      2.00000
     21      -6.9822      2.00000
     22      -6.5978      2.00000
     23      -6.5361      2.00000
     24      -6.2612      2.00000
     25      -5.7506      2.00000
     26      -5.1789      2.00000
     27      -4.7189      2.00000
     28      -4.5527      2.00000
     29      -4.5000      2.00000
     30      -4.3570      2.00000
     31      -4.2459      2.00000
     32      -4.0167      2.00000
     33      -3.9339      2.00000
     34      -3.9174      2.00000
     35      -3.6890      2.00000
     36      -3.4141      2.00000
     37      -3.2552      2.00000
     38      -3.1682      2.00000
     39      -3.0601      2.00000
     40      -2.9958      2.00000
     41      -2.8521      2.00000
     42      -2.7474      2.00000
     43      -2.5890      2.00000
     44      -2.4310      2.00000
     45      -2.2894      2.00000
     46      -2.1852      2.00000
     47      -2.0204      2.00000
     48      -1.9389      2.00000
     49      -1.7405      2.00000
     50      -1.5668      2.00000
     51      -1.4609      2.00000
     52      -1.3213      2.00000
     53      -0.5460      2.00000
     54      -0.2831      2.00000
     55       0.1450      0.60049
     56       0.3517      0.00057
     57       0.7824      0.00000
     58       1.2552      0.00000
     59       1.3694      0.00000
     60       1.5677      0.00000
     61       1.6670      0.00000
     62       1.9342      0.00000
     63       1.9611      0.00000
     64       2.2108      0.00000
     65       2.2686      0.00000
     66       2.3646      0.00000
     67       2.4853      0.00000
     68       2.7618      0.00000

 k-point    54 :       0.4615    0.5000    0.5000
  band No.  band energies     occupation 
      1     -13.5431      2.00000
      2     -11.7724      2.00000
      3     -11.3687      2.00000
      4     -11.2818      2.00000
      5     -11.0480      2.00000
      6     -11.0060      2.00000
      7     -10.8931      2.00000
      8     -10.8285      2.00000
      9     -10.7253      2.00000
     10     -10.6030      2.00000
     11     -10.4957      2.00000
     12     -10.4254      2.00000
     13      -9.6677      2.00000
     14      -8.6441      2.00000
     15      -8.5423      2.00000
     16      -8.3193      2.00000
     17      -8.0141      2.00000
     18      -7.9976      2.00000
     19      -7.7058      2.00000
     20      -7.4384      2.00000
     21      -7.3002      2.00000
     22      -7.1666      2.00000
     23      -7.0470      2.00000
     24      -6.0837      2.00000
     25      -5.4472      2.00000
     26      -4.9039      2.00000
     27      -4.8249      2.00000
     28      -4.4033      2.00000
     29      -4.3513      2.00000
     30      -4.2593      2.00000
     31      -4.1564      2.00000
     32      -4.0312      2.00000
     33      -3.9628      2.00000
     34      -3.8303      2.00000
     35      -3.6732      2.00000
     36      -3.6338      2.00000
     37      -3.5574      2.00000
     38      -3.4252      2.00000
     39      -3.1635      2.00000
     40      -3.1339      2.00000
     41      -2.9291      2.00000
     42      -2.8938      2.00000
     43      -2.7039      2.00000
     44      -2.5683      2.00000
     45      -2.2684      2.00000
     46      -2.2115      2.00000
     47      -2.0723      2.00000
     48      -1.9874      2.00000
     49      -1.7989      2.00000
     50      -1.5976      2.00000
     51      -1.4097      2.00000
     52      -1.3370      2.00000
     53      -0.5917      2.00000
     54      -0.3339      2.00000
     55       0.1151      0.91996
     56       0.1979      0.20336
     57       0.6153      0.00000
     58       1.2857      0.00000
     59       1.4698      0.00000
     60       1.5905      0.00000
     61       1.6982      0.00000
     62       1.7889      0.00000
     63       1.9011      0.00000
     64       1.9777      0.00000
     65       2.1199      0.00000
     66       2.2220      0.00000
     67       2.3901      0.00000
     68       2.5044      0.00000


--------------------------------------------------------------------------------------------------------


 soft charge-density along one line, spin component           1
         0         1         2         3         4         5         6         7         8         9
 total charge-density along one line
 
 pseudopotential strength for first ion, spin component:           1
 29.751   0.008  -0.000  -0.023   0.000  -0.000  -0.001   0.000
  0.008   0.009  -0.000  -0.000  -0.000   0.000   0.000   0.000
 -0.000  -0.000   6.544  -0.001  -0.000  -0.003   0.000   0.000
 -0.023  -0.000  -0.001   6.538   0.000   0.000  -0.002   0.000
  0.000  -0.000  -0.000   0.000   6.544   0.000   0.000  -0.003
 -0.000   0.000  -0.003   0.000   0.000   0.015  -0.000  -0.000
 -0.001   0.000   0.000  -0.002   0.000  -0.000   0.015  -0.000
  0.000   0.000   0.000   0.000  -0.003  -0.000  -0.000   0.015
 total augmentation occupancy for first ion, spin component:           1
  1.812  -0.359   0.007   0.252  -0.000   0.005   0.113   0.000
 -0.359   1.279   0.027   0.851  -0.000   0.002  -0.433   0.000
  0.007   0.027   1.143   0.010  -0.000  -0.502   0.015   0.000
  0.252   0.851   0.010   1.291  -0.000   0.015  -0.420   0.000
 -0.000  -0.000  -0.000  -0.000   1.145   0.000  -0.000  -0.526
  0.005   0.002  -0.502   0.015   0.000   0.291  -0.016  -0.000
  0.113  -0.433   0.015  -0.420  -0.000  -0.016   0.227   0.000
  0.000   0.000   0.000   0.000  -0.526  -0.000   0.000   0.325


------------------------ aborting loop because EDIFF is reached ----------------------------------------


    CHARGE:  cpu time    4.60: real time    4.60
    FORLOC:  cpu time    0.06: real time    0.06
    FORNL :  cpu time   20.18: real time   20.18
    STRESS:  cpu time   61.02: real time   61.04
    FORCOR:  cpu time   14.84: real time   14.84
    FORHAR:  cpu time    0.15: real time    0.15
    MIXING:  cpu time    0.02: real time    0.02
    OFIELD:  cpu time    0.00: real time    0.00

  FORCE on cell =-STRESS in cart. coord.  units (eV):
  Direction    XX          YY          ZZ          XY          YZ          ZX
  --------------------------------------------------------------------------------------
  Alpha Z    36.80885    36.80885    36.80885
  Ewald   14426.21486 13963.82439-16401.49519     0.54414   -18.61582     2.19109
  Hartree 14951.08130 14593.23568-14429.15137    -1.28139   -11.84211    -1.37517
  E(xc)    -358.49417  -359.10580  -358.42092    -0.04087    -0.46857    -0.15096
  Local  -30934.33873-30126.06216 29249.42228     1.74938    36.99878     2.38045
  n-local  1158.88965  1175.04564  1181.07337     1.39415     6.77047     2.48911
  augment  -202.49997  -205.21548  -206.55245     0.04206     0.35639     0.05746
  Kinetic   924.15413   947.49299   989.75792    -0.84808    -1.97626     1.97922
  Fock        0.00000     0.00000     0.00000     0.00000     0.00000     0.00000
  -------------------------------------------------------------------------------------
  Total       1.81590    26.02409    61.44250     1.55939    11.22288     7.57120
  in kB       2.90267    41.59870    98.21391     2.49264    17.93943    12.10232
  external pressure =       47.57 kB  Pullay stress =        0.00 kB


 VOLUME and BASIS-vectors are now :
 -----------------------------------------------------------------------------
  energy-cutoff  :      300.00
  volume of cell :     1002.32
      direct lattice vectors                 reciprocal lattice vectors
     3.540400000  0.000000000  0.000000000     0.282453960  0.048570342  0.000000000
    -1.770200000 10.294348000  0.000000000     0.000000000  0.097140683  0.000000000
     0.000000000  0.000000000 27.501429000     0.000000000  0.000000000  0.036361747

  length of vectors
     3.540400000 10.445439617 27.501429000     0.286599577  0.097140683  0.036361747


 FORCES acting on ions
    electron-ion (+dipol)            ewald-force                    non-local-force                 convergence-correction
 -----------------------------------------------------------------------------------------------
   -.175E-01 0.424E+01 0.311E+02   0.468E-02 -.412E+01 -.266E+02   0.153E-01 -.149E+00 -.451E+01   0.192E-06 0.269E-05 -.139E-04
   0.898E-01 -.161E+02 -.557E+03   -.128E+00 0.164E+02 0.561E+03   0.168E-02 -.337E+00 -.413E+01   -.972E-07 -.318E-06 0.367E-04
   0.110E-02 0.662E+02 0.505E+02   -.286E-02 -.677E+02 -.463E+02   0.161E-02 0.152E+01 -.415E+01   -.405E-07 -.202E-05 -.121E-04
   0.645E+00 0.354E+02 -.556E+03   -.336E+00 -.372E+02 0.561E+03   -.352E+00 0.129E+01 -.426E+01   -.892E-07 -.403E-05 0.235E-04
   -.303E-04 -.571E+02 0.526E+03   0.859E-04 0.587E+02 -.530E+03   -.857E-04 -.154E+01 0.428E+01   0.434E-07 -.142E-05 -.143E-05
   -.313E+00 -.677E+02 -.864E+02   0.234E+00 0.704E+02 0.843E+02   -.237E+00 -.279E+01 0.259E+01   0.176E-06 -.826E-06 -.204E-04
   -.188E-03 0.541E+02 0.526E+03   0.219E-04 -.560E+02 -.531E+03   -.757E-03 0.191E+01 0.415E+01   -.319E-07 -.772E-06 -.177E-05
   -.997E+01 0.980E+02 -.412E+02   0.956E+01 -.996E+02 0.374E+02   0.133E+01 0.512E+00 0.187E+01   -.292E-06 0.191E-05 -.175E-04
   -.271E-03 0.152E+01 0.572E+03   -.870E-04 -.172E+01 -.577E+03   0.136E-02 0.201E+00 0.476E+01   0.215E-07 0.187E-05 -.658E-05
   0.238E+00 -.405E+02 -.114E+02   -.393E+00 0.401E+02 0.802E+01   -.167E+00 0.125E+01 0.194E+01   0.803E-07 -.301E-06 -.241E-04
   0.133E-02 -.650E+02 0.560E+02   0.439E-04 0.670E+02 -.518E+02   -.133E-02 -.197E+01 -.407E+01   0.681E-07 -.327E-06 -.102E-04
   0.186E+00 -.191E+02 -.509E+03   -.289E-02 0.211E+02 0.513E+03   -.873E-01 -.196E+01 -.399E+01   -.209E-07 0.493E-05 0.221E-04
   -.169E-02 0.319E+02 0.209E+03   0.129E-03 -.341E+02 -.209E+03   0.445E-02 0.215E+01 0.354E+00   0.265E-07 -.335E-06 -.146E-05
   -.845E+01 -.260E+02 -.357E+03   0.862E+01 0.274E+02 0.355E+03   0.534E+01 0.142E+02 0.464E+02   0.223E-06 -.264E-05 0.567E-05
   0.190E-02 -.138E+02 0.138E+03   0.119E-03 0.141E+02 -.140E+03   -.371E-02 -.301E+00 0.254E+01   -.746E-08 0.278E-05 -.576E-05
   0.720E+00 -.222E+01 -.287E+03   -.514E+00 0.216E+01 0.287E+03   -.620E-02 -.227E+00 -.679E+00   0.205E-07 0.345E-05 0.969E-05
   -.369E-03 -.557E+01 0.346E+03   0.739E-04 0.604E+01 -.343E+03   -.294E-03 -.476E+00 -.251E+01   0.716E-08 0.666E-06 -.544E-06
   0.481E+00 -.491E+02 -.136E+03   -.285E+00 0.519E+02 0.135E+03   0.377E-01 -.106E+01 0.130E+01   -.196E-06 -.187E-06 -.153E-04
   -.340E-03 0.965E+01 0.336E+03   -.176E-04 -.988E+01 -.333E+03   -.213E-02 0.220E+00 -.254E+01   0.773E-07 0.102E-05 -.128E-05
   0.135E+02 0.119E+02 -.684E+02   -.125E+02 -.116E+02 0.686E+02   -.701E+01 -.740E+01 -.457E+02   0.119E-06 -.415E-06 -.101E-04
   0.116E-01 0.105E+02 0.129E+03   -.766E-03 -.109E+02 -.131E+03   -.105E-01 0.357E+00 0.248E+01   -.271E-07 -.159E-06 -.654E-05
   -.120E+01 -.238E+02 -.332E+03   0.824E+00 0.228E+02 0.330E+03   0.167E+00 0.520E+00 0.363E+00   0.310E-07 -.494E-05 0.137E-04
   -.109E-02 -.311E+02 0.253E+03   -.747E-04 0.331E+02 -.253E+03   0.265E-02 -.207E+01 -.419E+00   -.570E-08 -.206E-05 -.534E-07
   0.606E+01 0.102E+03 -.233E+03   -.508E+01 -.983E+02 0.232E+03   -.995E+00 -.127E+02 0.675E+01   0.224E-06 0.250E-05 -.124E-05
 -----------------------------------------------------------------------------------------------
   0.197E+01 0.882E+01 -.279E+01   -.142E-13 0.426E-13 0.114E-12   -.196E+01 -.882E+01 0.280E+01   0.502E-06 0.108E-05 -.390E-04
 
 
 POSITION                                       TOTAL-FORCE (eV/Angst)
 -----------------------------------------------------------------------------------
      0.00000      2.34757      6.41229         0.002233     -0.036877      0.047023
      1.94722      5.43588     14.16300        -0.036582     -0.017386     -0.220399
     -0.00000      9.43147      5.75866        -0.000391     -0.012546      0.073247
      0.17702      2.22542     13.50937        -0.043554     -0.522321      0.810560
     -0.00000      6.40009      2.31424        -0.000266     -0.003489     -0.000379
     -0.00000      6.40009     10.06495        -0.315982     -0.061831      0.563118
      1.77020     10.27849      2.37372        -0.001160     -0.003069     -0.000161
      1.77020     10.27849     10.12443         0.926450     -1.100405     -2.010501
      1.77020      3.18974      1.66157         0.000769     -0.001206      0.010875
      1.77020      3.18974      9.41228        -0.321634      0.836412     -1.405322
      1.77020      5.55354      5.69975        -0.000195      0.010991      0.095977
      0.17702      8.64185     13.45047         0.095418      0.063834      0.106276
      1.77020      9.05319      4.34076         0.002659     -0.005118      0.010983
      1.94722      1.84715     12.09147         5.513605     15.547197     44.053583
      0.00000      4.22380      5.10944        -0.001932      0.040416      0.088848
      1.94722      7.31211     12.86016         0.199755     -0.294460     -1.068204
     -0.00000      4.15582      2.74166        -0.000825     -0.003460     -0.022911
     -0.00000      4.15582     10.49237         0.233913      1.766252      0.409294
      1.77020      1.31366      2.96438        -0.002726     -0.007559     -0.014845
      1.77020      1.31366     10.71510        -6.029801     -7.006994    -45.462264
      1.77020      1.38163      5.33187         0.000063     -0.032294     -0.003154
      0.17702      4.46993     13.08259        -0.204834     -0.476317     -1.108592
      1.77020      6.77850      3.73234         0.001242     -0.008478      0.001501
      0.17702      9.86680     11.48306        -0.016226     -8.671294      5.045443
 -----------------------------------------------------------------------------------
    total drift:                                0.005668      0.001111      0.003636


--------------------------------------------------------------------------------------------------------



  FREE ENERGIE OF THE ION-ELECTRON SYSTEM (eV)
  ---------------------------------------------------
  free  energy   TOTEN  =      -112.24194193 eV

  energy  without entropy=     -112.20643811  energy(sigma->0) =     -112.22419002
 


--------------------------------------------------------------------------------------------------------


    POTLOK:  cpu time   14.83: real time   14.83


--------------------------------------------------------------------------------------------------------


     LOOP+:  cpu time 2707.76: real time 2708.32
    4ORBIT:  cpu time    0.00: real time    0.00

 total amount of memory used by VASP on root node   146493. kBytes
========================================================================

   base      :      30000. kBytes
   nonlr-proj:       3452. kBytes
   fftplans  :       9347. kBytes
   grid      :      14649. kBytes
   one-center:         36. kBytes
   wavefun   :      89009. kBytes
 
  
  
 General timing and accounting informations for this job:
 ========================================================
  
                  Total CPU time used (sec):     2724.425
                            User time (sec):     2693.648
                          System time (sec):       30.777
                         Elapsed time (sec):     2726.048
  
                   Maximum memory used (kb):      335140.
                   Average memory used (kb):           0.
  
                          Minor page faults:      8208686
                          Major page faults:            8
                 Voluntary context switches:         1532
